LAMMPS data file via write_data, version 30 Mar 2018, timestep = 893

366 atoms
6 atom types

0.0000000000000000e+00 2.4336919000000002e+01 xlo xhi
0.0000000000000000e+00 2.1076388999999999e+01 ylo yhi
0.0000000000000000e+00 1.0000000000000000e+02 zlo zhi
1.2168460000000000e+01 0.0000000000000000e+00 0.0000000000000000e+00 xy xz yz

Masses

1 95.94
2 32.066
3 32.066
4 95.94
5 32.066
6 32.066

Atoms # atomic

1 2 2.2545613591759501e+01 1.0605647212846030e-01 4.1663544096475542e+00 -1 1 0
2 3 2.2533757427362218e+01 1.0924533674303466e-01 7.2858857705678721e+00 -1 1 0
3 2 9.8739785250440992e-01 1.4980346046460249e+00 4.1663550444664441e+00 0 1 0
4 3 9.9608668565109981e-01 1.5067072809231516e+00 7.2858864274008717e+00 0 1 0
5 2 3.1723643015668024e+01 1.6717329942552912e+01 4.1512749762967651e+00 -1 0 0
6 3 3.1734099081426024e+01 1.6707471922641414e+01 7.2705692529070820e+00 -1 0 0
7 2 3.4524711493437749e+01 1.8093999333101028e+01 4.1572921997221259e+00 -1 0 0
8 3 3.4525605854093953e+01 1.8075716097416240e+01 7.2765614015076991e+00 -1 0 0
9 1 3.3710105547527945e+01 1.9689599100612110e+01 5.7226366752403184e+00 -1 0 0
10 2 1.2971995005426104e+01 1.9472007778540803e+01 4.1663545308431553e+00 0 0 0
11 3 1.2975161017832974e+01 1.9460145362125324e+01 7.2858858930624715e+00 0 0 0
12 1 3.6505254443358169e+01 2.1076292113877756e+01 5.7303677432670259e+00 -1 0 0
13 2 1.5741349477697181e+01 2.0852238802224726e+01 4.1572932541294696e+00 0 0 0
14 3 1.5756735681091964e+01 2.0862153979327093e+01 7.2765624866352461e+00 0 0 0
15 1 2.7862826733899997e+00 1.3960538990737128e+00 5.7164487768898375e+00 0 1 0
16 2 6.3431427777512779e+00 1.1545048091750747e+00 4.1215621298817489e+00 0 1 0
17 3 6.3679148810561923e+00 1.1887340866873179e+00 7.2395443342922849e+00 0 1 0
18 2 9.1308662439848884e+00 2.5277076887810139e+00 4.0720885030252498e+00 0 1 0
19 3 9.1501453414484910e+00 2.5736519922472203e+00 7.1884215022669116e+00 0 1 0
20 2 2.8722103657948068e+01 1.2246465964505235e+01 4.1457900817613655e+00 -1 0 0
21 3 2.8763425094089492e+01 1.2232629751438941e+01 7.2648643860214186e+00 -1 0 0
22 2 3.1525140306768527e+01 1.3631897984766272e+01 4.1241437537037413e+00 -1 0 0
23 3 3.1561109074130073e+01 1.3606525962280973e+01 7.2423933276007508e+00 -1 0 0
24 1 3.0727796761748301e+01 1.5222017337124568e+01 5.7071179574950737e+00 -1 0 0
25 2 9.9966155444628892e+00 1.5005562183272579e+01 4.1215602838271783e+00 0 0 0
26 3 1.0013873938419852e+01 1.4966994021605000e+01 7.2395424297659758e+00 0 0 0
27 1 3.3527159016933993e+01 1.6591941256379130e+01 5.7046365566956654e+00 -1 0 0
28 2 1.2793094330421615e+01 1.6374280301429941e+01 4.1382628036565308e+00 0 0 0
29 3 1.2795011435827227e+01 1.6335045579277448e+01 7.2567062404070075e+00 0 0 0
30 1 1.1984234194902399e+01 1.7965117915881148e+01 5.7164474490656634e+00 0 0 0
31 2 1.5569385711591819e+01 1.7743615562915917e+01 4.1548698602135330e+00 0 0 0
32 3 1.5568250057606480e+01 1.7724198047246567e+01 7.2740978536169081e+00 0 0 0
33 1 1.4766821888867659e+01 1.9348969300407461e+01 5.7226370760461549e+00 0 0 0
34 2 1.8334114289089289e+01 1.9114777744464249e+01 4.1512755097689951e+00 0 0 0
35 3 1.8337423776677348e+01 1.9128760633401335e+01 7.2705697957975532e+00 0 0 0
36 1 1.7540946065807475e+01 2.0739362011928563e+01 5.7046378262337587e+00 0 0 0
37 2 2.1105427654196479e+01 2.0485585493606923e+01 4.1241446395738999e+00 0 0 0
38 3 2.1109416705444374e+01 2.0529420442160180e+01 7.2423942461794582e+00 0 0 0
39 1 8.1482884023830007e+00 1.0489006687538287e+00 5.6631749878575528e+00 0 1 0
40 2 1.1728843241408368e+01 7.7843747432211852e-01 4.0897218421870329e+00 0 1 0
41 3 1.1721399414751254e+01 8.3392240196246714e-01 7.2066079305161832e+00 0 1 0
42 1 1.0935522322569442e+01 2.4230155043472248e+00 5.6189596959536665e+00 0 1 0
43 2 1.4541136473970219e+01 2.1488380248289380e+00 4.0725239766734980e+00 0 1 0
44 3 1.4512184906265539e+01 2.1946257238740845e+00 7.1887500745709572e+00 0 1 0
45 2 2.5730305062404437e+01 7.7320510033872010e+00 4.1531169164792674e+00 -1 0 0
46 3 2.5754566238495613e+01 7.7271426456376062e+00 7.2724476405758267e+00 -1 0 0
47 2 2.8514332575117841e+01 9.1382765555159544e+00 4.1258034562073629e+00 -1 0 0
48 3 2.8565021219199814e+01 9.1297625792210120e+00 7.2439413764300840e+00 -1 0 0
49 1 2.7742872376634772e+01 1.0742261969481955e+01 5.7076188956766734e+00 -1 0 0
50 2 6.9780805545610924e+00 1.0529441671644415e+01 4.0897215161707914e+00 0 0 0
51 3 7.0298544345487555e+00 1.0508146686358049e+01 7.2066075891870112e+00 0 0 0
52 1 3.0539354207460445e+01 1.2127106668049716e+01 5.6788559513046604e+00 -1 0 0
53 2 9.7919815708291900e+00 1.1904720991988558e+01 4.0720868578752381e+00 0 0 0
54 3 9.8221319543135408e+00 1.1865053475783490e+01 7.1884198117931897e+00 0 0 0
55 1 9.0025869579096831e+00 1.3495062346402264e+01 5.6631733850579655e+00 0 0 0
56 2 1.2603396138528005e+01 1.3270467606750952e+01 4.0863976629897536e+00 0 0 0
57 3 1.2605731322668131e+01 1.3218645749891271e+01 7.2030353655099066e+00 0 0 0
58 1 1.1799926438191417e+01 1.4857800786567626e+01 5.6734887195933013e+00 0 0 0
59 2 1.5396160744741206e+01 1.4634857643158380e+01 4.1218591107231228e+00 0 0 0
60 3 1.5381404066774959e+01 1.4589375146610525e+01 7.2397388439405672e+00 0 0 0
61 1 1.4586160353717077e+01 1.6228215653116706e+01 5.6989587725811797e+00 0 0 0
62 2 1.8167818417539713e+01 1.6003403374660838e+01 4.1531159048865502e+00 0 0 0
63 3 1.8151436323134988e+01 1.5984844850141132e+01 7.2724465748833014e+00 0 0 0
64 1 1.7359307243254896e+01 1.7611060985016429e+01 5.7154518366512068e+00 0 0 0
65 2 2.0931873705622159e+01 1.7376437285855602e+01 4.1609708721952892e+00 0 0 0
66 3 2.0921524656820111e+01 1.7393237852767037e+01 7.2807587696290463e+00 0 0 0
67 1 2.0127016172565121e+01 1.9000005327007070e+01 5.7071183947183748e+00 0 0 0
68 2 2.3706765005447011e+01 1.8750800120887504e+01 4.1457902512182763e+00 0 0 0
69 3 2.3698086978104808e+01 1.8793503255484616e+01 7.2648645664898091e+00 0 0 0
70 1 2.2901508375349898e+01 2.0384264969154906e+01 5.6788564563460957e+00 0 0 0
71 2 2.6502420850012790e+01 2.0124959667698196e+01 4.1258031359268479e+00 0 0 0
72 3 2.6484450308210235e+01 2.0173114895223986e+01 7.2439410452383672e+00 0 0 0
73 1 1.3522535152844922e+01 6.8231743142391255e-01 5.6523012036207927e+00 0 1 0
74 2 1.7144434413365047e+01 4.2524271236573052e-01 4.1218602880004314e+00 0 1 0
75 3 1.7112424731128307e+01 4.6076401808846029e-01 7.2397400724924257e+00 0 1 0
76 1 1.6326115348782750e+01 2.0517663346840553e+00 5.6493781570809176e+00 0 1 0
77 2 1.9952352217118179e+01 1.8098524793762898e+00 4.1382630090967831e+00 0 1 0
78 3 1.9917415690404731e+01 1.8278100816775504e+00 7.2567064530490013e+00 0 1 0
79 2 2.5522453382594364e+01 4.6116364795284390e+00 4.1548706964993078e+00 -1 0 0
80 3 2.5539835399122332e+01 4.6203613414493976e+00 7.2740987318750685e+00 -1 0 0
81 2 3.9644099575781140e+00 6.0159988705961291e+00 4.1218616062253135e+00 0 0 0
82 3 4.0111763041372264e+00 6.0259601337770237e+00 7.2397414386955043e+00 0 0 0
83 1 2.7538018584286302e+01 7.6340512232061117e+00 5.6938140128839496e+00 -1 0 0
84 2 6.7587355987585962e+00 7.4087235836246883e+00 4.0725250320649042e+00 0 0 0
85 3 6.8128646786742770e+00 7.4109038662311999e+00 7.1887511581943189e+00 0 0 0
86 1 5.9979924924442578e+00 9.0241192421722420e+00 5.6523015807439920e+00 0 0 0
87 2 9.5720805366608523e+00 8.7863858267131398e+00 4.0356670078987165e+00 0 0 0
88 3 9.6072045638163601e+00 8.7702760267457478e+00 7.1510148119516312e+00 0 0 0
89 1 8.7989876871997090e+00 1.0394189512002329e+01 5.6189588871770395e+00 0 0 0
90 2 1.2393728477499838e+01 1.0153555474099456e+01 4.0351233076501609e+00 0 0 0
91 3 1.2395657804360582e+01 1.0116561349817003e+01 7.1504437055544603e+00 0 0 0
92 1 1.1601160512264066e+01 1.1752479003600392e+01 5.6173583864016550e+00 0 0 0
93 2 1.5205131640363486e+01 1.1518538092271241e+01 4.0725221186931799e+00 0 0 0
94 3 1.5179955429397699e+01 1.1470571277168505e+01 7.1887481611210555e+00 0 0 0
95 1 1.4396709343767803e+01 1.3112910797782735e+01 5.6493769076955891e+00 0 0 0
96 2 1.7993630840174710e+01 1.2889251904123299e+01 4.1258009480819569e+00 0 0 0
97 3 1.7960912634611411e+01 1.2849610470268347e+01 7.2439387662549706e+00 0 0 0
98 1 1.7179090357653180e+01 1.4486876920309552e+01 5.6938117855603707e+00 0 0 0
99 2 2.0763143511829988e+01 1.4268775433235753e+01 4.1658719839932159e+00 0 0 0
100 3 2.0740672310078782e+01 1.4254101891654319e+01 7.2857854300464782e+00 0 0 0
101 1 1.9950006258443466e+01 1.5875438562243550e+01 5.7232832004287202e+00 0 0 0
102 2 2.3530625971641342e+01 1.5653279457807862e+01 4.1770815725340675e+00 0 0 0
103 3 2.3523127343882713e+01 1.5665754715627502e+01 7.2975081051668154e+00 0 0 0
104 1 2.2719583631070677e+01 1.7268561924538140e+01 5.7248343507393455e+00 0 0 0
105 2 2.6312367723910281e+01 1.7036729779896135e+01 4.1658733227172142e+00 0 0 0
106 3 2.6310896300701774e+01 1.7063526060701641e+01 7.2857868297310615e+00 0 0 0
107 1 2.5499059437087183e+01 1.8654862768469247e+01 5.7076189701169984e+00 0 0 0
108 2 2.9112261553329628e+01 1.8417033466781643e+01 4.1531168481117868e+00 0 0 0
109 3 2.9104381658765149e+01 1.8440499549360236e+01 7.2724475683932477e+00 0 0 0
110 1 2.8293275326227118e+01 2.0031559848825893e+01 5.6938133908191260e+00 0 0 0
111 2 3.1918545986254170e+01 1.9797235874626939e+01 4.1548699671605007e+00 0 0 0
112 3 3.1902298696438507e+01 1.9807927856019315e+01 7.2740979794280056e+00 0 0 0
113 1 1.8929323673549824e+01 3.3004453161735553e-01 5.6989593267370751e+00 0 1 0
114 1 2.1734488338086940e+01 1.7149268147736412e+00 5.7164475131591166e+00 0 1 0
115 1 2.4533456868941347e+01 3.1139190865216011e+00 5.7226372210710945e+00 -1 0 0
116 2 3.7595590500123386e+00 2.8919663373349600e+00 4.1382647932429020e+00 0 0 0
117 3 3.7925779650745963e+00 2.9132432349300550e+00 7.2567083048558763e+00 0 0 0
118 1 2.9895210699302686e+00 4.5178387883999225e+00 5.6989607491080205e+00 0 0 0
119 2 6.5423881848729710e+00 4.2795900645578806e+00 4.0864003450051660e+00 0 0 0
120 3 6.5861000301074633e+00 4.3075228576862683e+00 7.2030381272017632e+00 0 0 0
121 1 5.7821798608990260e+00 5.9114228250572998e+00 5.6493798877105084e+00 0 0 0
122 2 9.3465462597414071e+00 5.6564693576898541e+00 4.0351252369299386e+00 0 0 0
123 3 9.3776210706209699e+00 5.6766373184469670e+00 7.1504456717419345e+00 0 0 0
124 1 8.5802133992431600e+00 7.2861358984405955e+00 5.5989837502756146e+00 0 0 0
125 2 1.2168334018856113e+01 7.0253667375693993e+00 4.0135340058588875e+00 0 0 0
126 3 1.2168334983656370e+01 7.0253675511905831e+00 7.1284735218451658e+00 0 0 0
127 1 1.1384089091359673e+01 8.6458160748704866e+00 5.5774111516222256e+00 0 0 0
128 2 1.4991548580240391e+01 8.3932786098904035e+00 4.0356652414251570e+00 0 0 0
129 3 1.4960035535598914e+01 8.3709169487097945e+00 7.1510130089715709e+00 0 0 0
130 1 1.4188228051462580e+01 1.0002386567859643e+01 5.5989813300865725e+00 0 0 0
131 2 1.7798080434544854e+01 9.7682203781599704e+00 4.0897189567068679e+00 0 0 0
132 3 1.7753751209895871e+01 9.7340311236189425e+00 7.2066049456797048e+00 0 0 0
133 1 1.6984477101754706e+01 1.1369663153494459e+01 5.6522986375103761e+00 0 0 0
134 2 2.0581516206094570e+01 1.1155221802998744e+01 4.1457880463428642e+00 0 0 0
135 3 2.0548872156457406e+01 1.1126354120700611e+01 7.2648622676668344e+00 0 0 0
136 1 1.9768452865311108e+01 1.2755362865119350e+01 5.7076168421172131e+00 0 0 0
137 2 2.3352117514006920e+01 1.2551440768729886e+01 4.1770809718424173e+00 0 0 0
138 3 2.3345061361970775e+01 1.2538708514944178e+01 7.2975074793203119e+00 0 0 0
139 1 2.2544406428402255e+01 1.4154046306676676e+01 5.7382324563524412e+00 0 0 0
140 2 2.6127642296626579e+01 1.3947767272439389e+01 4.1770817578056425e+00 0 0 0
141 3 2.6142195626547526e+01 1.3948022663804577e+01 7.2975082977072416e+00 0 0 0
142 1 2.5322378419560842e+01 1.5551474604480472e+01 5.7382332449609885e+00 0 0 0
143 2 2.8919316379963572e+01 1.5336774338056301e+01 4.1609710772759598e+00 0 0 0
144 3 2.8939041628941730e+01 1.5337335957249504e+01 7.2807589848771324e+00 0 0 0
145 1 2.8110347668405847e+01 1.6937595502445138e+01 5.7232841322608250e+00 0 0 0
146 1 3.0908790055357645e+01 1.8313395602496204e+01 5.7154520349427500e+00 0 0 0
147 1 5.5694524530556144e+00 2.7900978946311450e+00 5.6734911259383587e+00 0 0 0
148 1 8.3581228693183558e+00 4.1706233316500265e+00 5.6173606747263225e+00 0 0 0
149 2 1.1941373559796558e+01 3.8964355994304736e+00 4.0356672504834981e+00 0 0 0
150 3 1.1937764862035452e+01 3.9349090290724527e+00 7.1510150611182679e+00 0 0 0
151 1 1.1157107343481599e+01 5.5359660535763142e+00 5.5774119427769069e+00 0 0 0
152 2 1.4764727913492555e+01 5.2660752149897920e+00 4.0351235517467154e+00 0 0 0
153 3 1.4731726079541380e+01 5.2829033886284966e+00 7.1504439515802671e+00 0 0 0
154 1 1.3963807252663711e+01 6.8943191266789876e+00 5.5774105928565421e+00 0 0 0
155 2 1.7582155881711948e+01 6.6436710524550033e+00 4.0720855856143432e+00 0 0 0
156 3 1.7532727695749095e+01 6.6373954530443386e+00 7.1884184961560864e+00 0 0 0
157 1 1.6770494241592587e+01 8.2588954717691365e+00 5.6189568213003476e+00 0 0 0
158 2 2.0379816245448335e+01 8.0350047069820931e+00 4.1241420457625448e+00 0 0 0
159 3 2.0339858344010292e+01 8.0165416732497370e+00 7.2423915503794856e+00 0 0 0
160 1 1.9569521596227130e+01 9.6411166073511101e+00 5.6788536148865916e+00 0 0 0
161 2 2.3159195201719932e+01 9.4392760997619849e+00 4.1609699473018473e+00 0 0 0
162 3 2.3149817979633816e+01 9.4219128094333300e+00 7.2807578101518322e+00 0 0 0
163 1 2.2358762231786823e+01 1.1041415966901878e+01 5.7248329719595441e+00 0 0 0
164 2 2.5934874210046580e+01 1.0846982429132025e+01 4.1658729889243595e+00 0 0 0
165 3 2.5958815686921380e+01 1.0834858413181017e+01 7.2857864846233671e+00 0 0 0
166 1 2.5143600400867424e+01 1.2446965979722883e+01 5.7382328977155890e+00 0 0 0
167 1 2.7932039117567065e+01 1.3842509313397857e+01 5.7248344373559874e+00 0 0 0
168 1 1.3736562508870046e+01 3.7875784140172994e+00 5.5989828416461753e+00 0 0 0
169 2 1.7359219765257624e+01 3.5260419360390669e+00 4.0863980015835422e+00 0 0 0
170 3 1.7313173653047226e+01 3.5499319373158569e+00 7.2030357094060253e+00 0 0 0
171 1 1.6545720763987497e+01 5.1529982254878979e+00 5.6173581261833512e+00 0 0 0
172 2 2.0165246781389623e+01 4.9160322824562224e+00 4.1215596885698691e+00 0 0 0
173 3 2.0123216248396371e+01 4.9203712814999161e+00 7.2395418000070739e+00 0 0 0
174 1 1.9354129413309650e+01 6.5321366300652279e+00 5.6631720517522117e+00 0 0 0
175 2 2.2952627665315262e+01 6.3203802320496347e+00 4.1512744507494563e+00 0 0 0
176 3 2.2938861315322718e+01 6.3162546874759862e+00 7.2705686976614476e+00 0 0 0
177 1 2.2155571557747038e+01 7.9304650104197707e+00 5.7071167030405405e+00 0 0 0
178 1 2.4950030928316192e+01 9.3394532123366751e+00 5.7232836086164971e+00 0 0 0
179 1 1.9135625873922070e+01 3.4282008198097715e+00 5.6734886956791346e+00 0 0 0
180 2 2.2744324191709772e+01 3.2062497946116637e+00 4.1572922896676934e+00 0 0 0
181 3 2.2728042594341090e+01 3.2146171694975147e+00 7.2765614843682505e+00 0 0 0
182 1 2.1942279106853952e+01 4.8211845639844926e+00 5.7046361695159460e+00 0 0 0
183 1 2.4742287145440240e+01 6.2280309752842813e+00 5.7154521333961821e+00 0 0 0
184 5 2.3340589723467421e+01 1.5066986825864930e+00 1.0393164039344265e+01 -1 1 0
185 6 2.3349279760860451e+01 1.4980257052839803e+00 1.3512695404210410e+01 -1 1 0
186 5 3.0522161025362607e+01 1.5984835624537663e+01 1.0406602573159127e+01 -1 0 0
187 6 3.0505778680168724e+01 1.6003393060755069e+01 1.3525933285769391e+01 -1 0 0
188 5 3.3105347285073485e+01 1.7724188581325674e+01 1.0404952129552662e+01 -1 0 0
189 6 3.3104211355651998e+01 1.7743605328498553e+01 1.3524180136021100e+01 -1 0 0
190 4 3.3906775086365080e+01 1.9348959643580386e+01 1.1956413352057515e+01 -1 0 0
191 5 1.1361516587183898e+01 1.9460135995089413e+01 1.0393164293060160e+01 0 0 0
192 6 1.1364683006854923e+01 1.9471998298746925e+01 1.3512695651444723e+01 0 0 0
193 4 3.6505261069189736e+01 2.1076282953628052e+01 1.1948682266459967e+01 -1 0 0
194 5 1.8029184085738357e+00 1.0923605153822431e-01 1.0393163592338547e+01 0 1 0
195 6 1.7910632385895529e+00 1.0604767984794310e-01 1.3512694975430806e+01 0 1 0
196 4 2.6021878994681118e+00 1.7149178835717243e+00 1.1962601228972316e+01 0 1 0
197 5 4.4192600671073707e+00 1.8278004949894444e+00 1.0422341677271977e+01 0 1 0
198 6 4.3843243191090568e+00 1.8098436622376712e+00 1.3540785190026593e+01 0 1 0
199 5 2.8124723898869654e+01 1.1126345553141050e+01 1.0414185684790008e+01 -1 0 0
200 6 2.8092080819532754e+01 1.1155212546883003e+01 1.3533259989997525e+01 -1 0 0
201 4 2.8905143914103274e+01 1.2755353679126149e+01 1.1971431280105621e+01 -1 0 0
202 5 3.0712684309432952e+01 1.2849601029480624e+01 1.0435109255969833e+01 -1 0 0
203 6 3.0679965894744889e+01 1.2889241657280023e+01 1.3553247152913549e+01 -1 0 0
204 4 3.1494506569454202e+01 1.4486866957668393e+01 1.1985236869817763e+01 -1 0 0
205 5 8.9552742281560693e+00 1.4589365094749809e+01 1.0439310207599410e+01 0 0 0
206 6 8.9405167332533484e+00 1.4634847031303208e+01 1.3557189980511303e+01 0 0 0
207 4 9.7505173713448343e+00 1.6228205462827727e+01 1.1980090888974484e+01 0 0 0
208 5 1.1541666397952756e+01 1.6335035374703420e+01 1.0422343752962766e+01 0 0 0
209 6 1.1543582979921680e+01 1.6374270176231818e+01 1.3540787188771802e+01 0 0 0
210 4 1.2352443059890378e+01 1.7965108052690280e+01 1.1962602622703752e+01 0 0 0
211 5 1.4147990118751038e+01 1.8075706021305219e+01 1.0402488613234762e+01 0 0 0
212 6 1.4148884648921005e+01 1.8093990038280019e+01 1.3521757805083650e+01 0 0 0
213 4 1.4963490311900365e+01 1.9689589638053036e+01 1.1956412816442825e+01 0 0 0
214 5 1.6771296812850938e+01 1.9807917826093213e+01 1.0404951240399186e+01 0 0 0
215 6 1.6755049965315532e+01 1.9797226995515224e+01 1.3524179278205553e+01 0 0 0
216 4 5.4073521887736211e+00 3.3003505666907673e-01 1.1980089185918141e+01 0 1 0
217 5 7.2242511717161477e+00 4.6075372965494615e-01 1.0439308411409513e+01 0 1 0
218 6 7.1922414119751110e+00 4.2523346913590226e-01 1.3557188249719349e+01 0 1 0
219 4 8.0105609041856862e+00 2.0517563522325548e+00 1.2029669956285941e+01 0 1 0
220 5 9.8244919596858846e+00 2.1946150325206042e+00 1.0490298595484552e+01 0 1 0
221 6 9.7955393497083705e+00 2.1488279181107597e+00 1.3606524728009720e+01 0 1 0
222 5 2.5734733725952335e+01 6.3162466328030238e+00 1.0408480269395898e+01 -1 0 0
223 6 2.5720969308916484e+01 6.3203719116924209e+00 1.3527774552598014e+01 -1 0 0
224 4 2.6518024541393967e+01 7.9304566829533565e+00 1.1971931752928700e+01 -1 0 0
225 5 2.8333737223328878e+01 8.0165329208170792e+00 1.0436655961125366e+01 -1 0 0
226 6 2.8293780445190684e+01 8.0349956825293898e+00 1.3554905559820602e+01 -1 0 0
227 4 2.9104074725104812e+01 9.6411074808755615e+00 1.2000193814788830e+01 -1 0 0
228 5 6.5829262598650340e+00 9.7340213571077747e+00 1.0472442357514771e+01 0 0 0
229 6 6.5385968199115299e+00 9.7682102688325916e+00 1.3589328436165072e+01 0 0 0
230 4 7.3522003974251176e+00 1.1369653056571417e+01 1.2026749115900252e+01 0 0 0
231 5 9.1567226787852523e+00 1.1470560709018933e+01 1.0490300221322043e+01 0 0 0
232 6 9.1315452211120949e+00 1.1518527273574650e+01 1.3606526309902952e+01 0 0 0
233 4 9.9399680989092118e+00 1.3112900159952275e+01 1.2029672137574687e+01 0 0 0
234 5 1.1730946702326840e+01 1.3218634874728995e+01 1.0476014532717116e+01 0 0 0
235 6 1.1733280522963277e+01 1.3270456928752084e+01 1.3592652232283459e+01 0 0 0
236 4 1.2536750663366341e+01 1.4857790274609579e+01 1.2005561517429282e+01 0 0 0
237 5 1.4322803339650054e+01 1.4966983324274405e+01 1.0439508341156337e+01 0 0 0
238 6 1.4340061059253397e+01 1.5005552316016058e+01 1.3557490447280804e+01 0 0 0
239 4 1.5146436672214151e+01 1.6591931260318145e+01 1.1974413921871552e+01 0 0 0
240 5 1.6939496437136395e+01 1.6707461613010121e+01 1.0408481309342598e+01 0 0 0
241 6 1.6949952581023393e+01 1.6717320862822110e+01 1.3527775556163396e+01 0 0 0
242 4 1.7764805521626037e+01 1.8313385991978208e+01 1.1963597813166011e+01 0 0 0
243 5 1.9569213813426252e+01 1.8440489451769775e+01 1.0406602218756946e+01 0 0 0
244 6 1.9561334115689668e+01 1.8417024512753294e+01 1.3525932948688055e+01 0 0 0
245 4 2.0380320606938483e+01 2.0031550147796167e+01 1.1985235789296302e+01 0 0 0
246 5 2.2189145926517995e+01 2.0173104714617597e+01 1.0435108349228948e+01 0 0 0
247 6 2.2171175015025810e+01 2.0124950112819395e+01 1.3553246279553866e+01 0 0 0
248 4 1.0814141396868944e+01 6.8230727072644792e-01 1.2026748106398115e+01 0 1 0
249 5 1.2615277831817920e+01 8.3391207613357099e-01 1.0472442046245574e+01 0 1 0
250 6 1.2607832926786569e+01 7.7842711388286534e-01 1.3589328130351291e+01 0 1 0
251 4 1.3401154764699100e+01 2.4230049487534431e+00 1.2060090739854610e+01 0 1 0
252 5 1.5186532485615391e+01 2.5736417722406562e+00 1.0490629798230524e+01 0 1 0
253 6 1.5205810346365668e+01 2.5276970127305227e+00 1.3606962762152117e+01 0 1 0
254 4 2.4140138937985320e+01 3.1139105071793889e+00 1.1956412868751327e+01 -1 0 0
255 5 2.5945552283195099e+01 3.2146086200239443e+00 1.0402487515541496e+01 -1 0 0
256 6 2.5929272302845526e+01 3.2062413362435827e+00 1.3521756747730246e+01 -1 0 0
257 4 2.6731316579600147e+01 4.8211760377364650e+00 1.1974412230229056e+01 -1 0 0
258 5 4.2134598899214906e+00 4.9203621582889108e+00 1.0439505744878563e+01 0 0 0
259 6 4.1714303876308874e+00 4.9160234031949406e+00 1.3557487945723491e+01 0 0 0
260 4 4.9825474214819891e+00 6.5321274425696183e+00 1.2015875166771306e+01 0 0 0
261 5 6.8039492898422527e+00 6.6373853815393851e+00 1.0490628630307915e+01 0 0 0
262 6 6.7545208517771371e+00 6.6436611634168123e+00 1.3606961624878453e+01 0 0 0
263 4 7.5661828229296884e+00 8.2588853030876237e+00 1.2060090510837185e+01 0 0 0
264 5 9.3766422818288717e+00 8.3709060717644572e+00 1.0528035084701665e+01 0 0 0
265 6 9.3451277668352617e+00 8.3932678128606995e+00 1.3643382891364345e+01 0 0 0
266 4 1.0148449126127639e+01 1.0002375690482626e+01 1.2080067362845217e+01 0 0 0
267 5 1.1941020298195831e+01 1.0116550134829934e+01 1.0528606171745775e+01 0 0 0
268 6 1.1942947721358966e+01 1.0153544473603928e+01 1.3643926567691766e+01 0 0 0
269 4 1.2735516547618127e+01 1.1752468061864457e+01 1.2061692031848393e+01 0 0 0
270 5 1.4514545686852280e+01 1.1865042477914438e+01 1.0490631578447584e+01 0 0 0
271 6 1.4544694741127245e+01 1.1904710622623631e+01 1.3606964485055704e+01 0 0 0
272 4 1.5334089806874196e+01 1.3495051941600572e+01 1.2015878027068272e+01 0 0 0
273 5 1.7112486714599559e+01 1.3606515613104131e+01 1.0436658453294429e+01 0 0 0
274 6 1.7148455237119290e+01 1.3631888611538638e+01 1.3554907956055892e+01 0 0 0
275 4 1.7945798821124715e+01 1.5222007644888521e+01 1.1971933271922442e+01 0 0 0
276 5 1.9734553687318545e+01 1.5337326247402254e+01 1.0398292104925799e+01 0 0 0
277 6 1.9754279434808925e+01 1.5336765559047958e+01 1.3518079970095739e+01 0 0 0
278 4 2.0563248138572170e+01 1.6937586162257197e+01 1.1955766249710999e+01 0 0 0
279 5 2.2362699399301235e+01 1.7063516594365041e+01 1.0393263335695227e+01 0 0 0
280 6 2.2361228411303827e+01 1.7036720777039353e+01 1.3513176838304924e+01 0 0 0
281 4 2.3174536961627453e+01 1.8654853233521521e+01 1.1971430853053491e+01 0 0 0
282 5 2.4975509692743941e+01 1.8793493711045219e+01 1.0414185352407946e+01 0 0 0
283 6 2.4966831480435729e+01 1.8750790350357502e+01 1.3533259666650983e+01 0 0 0
284 4 2.5772088667313795e+01 2.0384254998891471e+01 1.2000193719382988e+01 0 0 0
285 5 2.7564180832737119e+01 2.0529410819676837e+01 1.0436656363440731e+01 0 0 0
286 6 2.7568169205328850e+01 2.0485575101195074e+01 1.3554905948055209e+01 0 0 0
287 4 1.6188389026486472e+01 1.0488905234119463e+00 1.2015876261201141e+01 0 1 0
288 5 1.7968762810200857e+01 1.1887247231327669e+00 1.0439507267205995e+01 0 1 0
289 6 1.7993534511928164e+01 1.1544945543657716e+00 1.3557489423180998e+01 0 1 0
290 4 5.2010504583596671e+00 3.4281915014267321e+00 1.2005558882380859e+01 0 0 0
291 5 7.0235028078315880e+00 3.5499216743513813e+00 1.0476011822555225e+01 0 0 0
292 6 6.9774564621942581e+00 3.5260323525497634e+00 1.3592649605677520e+01 0 0 0
293 4 7.7909558898321087e+00 5.1529880881754684e+00 1.2061689330659267e+01 0 0 0
294 5 9.6049513400447228e+00 5.2828924659588514e+00 1.0528604250209835e+01 0 0 0
295 6 9.5719480839945845e+00 5.2660646683288332e+00 1.3643924685456158e+01 0 0 0
296 4 1.0372869698770362e+01 6.8943082566803886e+00 1.2101638049580936e+01 0 0 0
297 5 1.2168343026640775e+01 7.0253563424147583e+00 1.0550576381715768e+01 0 0 0
298 6 1.2168341958641710e+01 7.0253557004543667e+00 1.3665515897598409e+01 0 0 0
299 4 1.2952587982891142e+01 8.6458049948429725e+00 1.2101639382421620e+01 0 0 0
300 5 1.4729473333102005e+01 8.7702650546278687e+00 1.0528036892216473e+01 0 0 0
301 6 1.4764595714906825e+01 8.7863751381539466e+00 1.3643384659438768e+01 0 0 0
302 4 1.5537689294530477e+01 1.0394178890625682e+01 1.2060093139610917e+01 0 0 0
303 5 1.7306822727122903e+01 1.0508136490058012e+01 1.0472444968799234e+01 0 0 0
304 6 1.7358596152420734e+01 1.0529431985129314e+01 1.3589330957863286e+01 0 0 0
305 4 1.8134241608510870e+01 1.2127096936575860e+01 1.2000196332446047e+01 0 0 0
306 5 1.9910170321741425e+01 1.2232620491558912e+01 1.0414187664925075e+01 0 0 0
307 6 1.9951492498974886e+01 1.2246457216385364e+01 1.3533261887147244e+01 0 0 0
308 4 2.0741556761000478e+01 1.3842500310787401e+01 1.1954216954664107e+01 0 0 0
309 5 2.2531399738299513e+01 1.3948013932637442e+01 1.0381542461665157e+01 0 0 0
310 6 2.2545954239608257e+01 1.3947758711485964e+01 1.3501968970855518e+01 0 0 0
311 4 2.3351217893867325e+01 1.5551465708491884e+01 1.1940816996612714e+01 0 0 0
312 5 2.5150468767097827e+01 1.5665745962163653e+01 1.0381541634782318e+01 0 0 0
313 6 2.5142970869188641e+01 1.5653270291669710e+01 1.3501968176917533e+01 0 0 0
314 4 2.5954013291412998e+01 1.7268552617490901e+01 1.1954215418097345e+01 0 0 0
315 5 2.7752072445326661e+01 1.7393228810565049e+01 1.0398290926537975e+01 0 0 0
316 6 2.7741723365228239e+01 1.7376427287087573e+01 1.3518078836587000e+01 0 0 0
317 4 2.8546581201882478e+01 1.8999995568704339e+01 1.1971931866408912e+01 0 0 0
318 5 3.0336173832107953e+01 1.9128751429969210e+01 1.0408480639085695e+01 0 0 0
319 6 3.0339482997681028e+01 1.9114767428854520e+01 1.3527774918602026e+01 0 0 0
320 4 3.1132651371007732e+01 2.0739352267155056e+01 1.1974413262197393e+01 0 0 0
321 5 3.2916861572202492e+01 2.0862144998246048e+01 1.0402488492702023e+01 0 0 0
322 6 3.2932248027681375e+01 2.0852229012493780e+01 1.3521757697974952e+01 0 0 0
323 4 2.1550394480003071e+01 1.3960447135171830e+00 1.1962602409215897e+01 0 1 0
324 4 1.0600114235991786e+01 3.7875677867100812e+00 1.2080066029715017e+01 0 0 0
325 5 1.2398912858081472e+01 3.9348981226384732e+00 1.0528034890238731e+01 0 0 0
326 6 1.2395302420796551e+01 3.8964247905953155e+00 1.3643382699206285e+01 0 0 0
327 4 1.3179569745154479e+01 5.5359551124558575e+00 1.2101638604107631e+01 0 0 0
328 5 1.4959056880945543e+01 5.6766266254978541e+00 1.0528606000422396e+01 0 0 0
329 6 1.4990130101828676e+01 5.6564585722493117e+00 1.3643926402433259e+01 0 0 0
330 4 1.5756463797756409e+01 7.2861252645196446e+00 1.2080068448017075e+01 0 0 0
331 5 1.7523812779959478e+01 7.4108939288737696e+00 1.0490301605858395e+01 0 0 0
332 6 1.7577941340459077e+01 7.4087136343822690e+00 1.3606527652723699e+01 0 0 0
333 4 1.8338684620325267e+01 9.0241094957074139e+00 1.2026751205848495e+01 0 0 0
334 5 2.0108574421847464e+01 9.1297536875557874e+00 1.0435111106882747e+01 0 0 0
335 6 2.0159263935695616e+01 9.1382677004931150e+00 1.3553248928461509e+01 0 0 0
336 4 2.0930723675907437e+01 1.0742253180968294e+01 1.1971433089286508e+01 0 0 0
337 5 2.2714779543401882e+01 1.0834850237867130e+01 1.0393264562880224e+01 0 0 0
338 6 2.2738722697168001e+01 1.0846974117288381e+01 1.3513178009145102e+01 0 0 0
339 4 2.3529995865974382e+01 1.2446957578276127e+01 1.1940817555505287e+01 0 0 0
340 5 2.5328534282410835e+01 1.2538700354332709e+01 1.0381541984499329e+01 0 0 0
341 6 2.5321479596665853e+01 1.2551432093737780e+01 1.3501968513343307e+01 0 0 0
342 4 2.6129190296991055e+01 1.4154037570880721e+01 1.1940816816282330e+01 0 0 0
343 5 2.7932924275348498e+01 1.4254093234445845e+01 1.0393263310455731e+01 0 0 0
344 6 2.7910453634322810e+01 1.4268765841085926e+01 1.3513176810564001e+01 0 0 0
345 4 2.8723590890985612e+01 1.5875429156757569e+01 1.1955765939908851e+01 0 0 0
346 4 3.1314290018282740e+01 1.7611051155347486e+01 1.1963598019061934e+01 0 0 0
347 4 1.5978554481674987e+01 4.1706128707337840e+00 1.2061691250670668e+01 0 0 0
348 5 1.7750577598781906e+01 4.3075132214576310e+00 1.0476014294397775e+01 0 0 0
349 6 1.7794288965983526e+01 4.2795799297189827e+00 1.3592652005928471e+01 0 0 0
350 4 1.8554497476746281e+01 5.9114130889496384e+00 1.2029672813677568e+01 0 0 0
351 5 2.0325500565228186e+01 6.0259514421011264e+00 1.0439310939596229e+01 0 0 0
352 6 2.0372267765481162e+01 6.0159898013232205e+00 1.3557190679750738e+01 0 0 0
353 4 2.1135577617196716e+01 7.6340424794573805e+00 1.1985238080271323e+01 0 0 0
354 5 2.2919028987597951e+01 7.7271347048282601e+00 1.0406603380775332e+01 0 0 0
355 6 2.2943292030120297e+01 7.7320427123367503e+00 1.3525934052638625e+01 0 0 0
356 4 2.3723565271478805e+01 9.3394450464840624e+00 1.1955766831332468e+01 0 0 0
357 5 2.5523777312386215e+01 9.4219048986749527e+00 1.0398291358026910e+01 0 0 0
358 6 2.5514401977914762e+01 9.4392677143922494e+00 1.3518079250702595e+01 0 0 0
359 4 2.6314834217771995e+01 1.1041407576398420e+01 1.1954215820350955e+01 0 0 0
360 4 1.8767224997391960e+01 2.7900881733994534e+00 1.2005560971476861e+01 0 0 0
361 5 2.0544099111122424e+01 2.9132345218753701e+00 1.0422343528511458e+01 0 0 0
362 6 2.0577118676805568e+01 2.8919569547076271e+00 1.3540786973311155e+01 0 0 0
363 4 2.1347156166281383e+01 4.5178299144912222e+00 1.1980091035922866e+01 0 0 0
364 5 2.3133759885379781e+01 4.6203532530800056e+00 1.0404952048778528e+01 0 0 0
365 6 2.3151143612575801e+01 4.6116279883142912e+00 1.3524180045718683e+01 0 0 0
366 4 2.3931308907022153e+01 6.2280227436375304e+00 1.1963598139966271e+01 0 0 0
