LAMMPS data file via write_data, version 3 Mar 2020, timestep = 192

546 atoms
6 atom types

0.0000000000000000e+00 2.9724744469299999e+01 xlo xhi
0.0000000000000000e+00 2.5742383824600001e+01 ylo yhi
0.0000000000000000e+00 1.0000000000000000e+02 zlo zhi
1.4862372246400000e+01 0.0000000000000000e+00 0.0000000000000000e+00 xy xz yz

Masses

1 95.94
2 32.066
3 32.066
4 95.94
5 32.066
6 32.066

Atoms # atomic

1 2 2.7917091895766678e+01 1.1786291076954153e-01 3.9938232797662101e+00 -1 1 0
2 3 2.7939881817800032e+01 1.1934342328624534e-01 7.1099041655403967e+00 -1 1 0
3 2 1.0058991085600435e+00 1.5065428813751613e+00 3.9938232792722563e+00 0 1 0
4 3 9.9578631356065894e-01 1.4860659722154079e+00 7.1099041650415185e+00 0 1 0
5 2 3.9782907812155614e+01 2.1336112788183875e+01 4.0667419501117461e+00 -1 0 0
6 3 3.9822443861075463e+01 2.1379819092615765e+01 7.1835353773319870e+00 -1 0 0
7 2 4.2578224324325468e+01 2.2730127692030830e+01 4.0140534256774814e+00 -1 0 0
8 3 4.2597033434642583e+01 2.2766815555477702e+01 7.1302853244228110e+00 -1 0 0
9 1 4.1791916349207050e+01 2.4362573198151505e+01 5.5643213767103470e+00 -1 0 0
10 2 1.5664127645097224e+01 2.4117979490076106e+01 3.9938232769725315e+00 0 0 0
11 3 1.5651450523692159e+01 2.4136975880758939e+01 7.1099041627331090e+00 0 0 0
12 1 6.4546728664377227e-07 4.8517795000736906e-07 5.5431084423840540e+00 0 1 0
13 2 1.8475510162862292e+01 2.5508760218426644e+01 4.0140534246114843e+00 0 0 0
14 3 1.8434332986960424e+01 2.5506705449616494e+01 7.1302853233613979e+00 0 0 0
15 1 2.7963393502913734e+00 1.3801800319921238e+00 5.5639883468566689e+00 0 1 0
16 2 6.4112883051457583e+00 1.1688742086770416e+00 4.0646468412754224e+00 0 1 0
17 3 6.3576655615968516e+00 1.1509437890708256e+00 7.1816058717254565e+00 0 1 0
18 2 9.1901100317051494e+00 2.5891214579307684e+00 4.1234579458855771e+00 0 1 0
19 3 9.1443316878228007e+00 2.5658295787727239e+00 7.2416233139900630e+00 0 1 0
20 2 3.6863731449803353e+01 1.6804967479496721e+01 4.1646995042934902e+00 -1 0 0
21 3 3.6889427840374779e+01 1.6830030470406470e+01 7.2831660183331204e+00 -1 0 0
22 2 3.9617370001299719e+01 1.8210794290091478e+01 4.1159199786349250e+00 -1 0 0
23 3 3.9642574481579317e+01 1.8257434974424783e+01 7.2337095140423813e+00 -1 0 0
24 1 3.8825196274895816e+01 1.9845906165299812e+01 5.6613905362695185e+00 -1 0 0
25 2 1.2669003396114734e+01 1.9605609464578080e+01 4.0646468410086838e+00 0 0 0
26 3 1.2680286572651259e+01 1.9661013331654473e+01 7.1816058714278537e+00 0 0 0
27 1 4.1597641259839477e+01 2.1245653394018952e+01 5.6015686527012285e+00 -1 0 0
28 2 1.5467235809052166e+01 2.0993865857074244e+01 4.0321316586988862e+00 0 0 0
29 3 1.5452881787816263e+01 2.1042929303439191e+01 7.1485624974998583e+00 0 0 0
30 1 1.4659474087803398e+01 2.2630594181262801e+01 5.5639883452060808e+00 0 0 0
31 2 1.8276094069061919e+01 2.2383936129086464e+01 4.0332009718340007e+00 0 0 0
32 3 1.8234207404851347e+01 2.2415824252088754e+01 7.1495413739396758e+00 0 0 0
33 1 1.7454924871742154e+01 2.4011574781312977e+01 5.5643213734902988e+00 0 0 0
34 2 2.1080420737366104e+01 2.3784952558738318e+01 4.0667419466906178e+00 0 0 0
35 3 2.1022801943162936e+01 2.3797338626021688e+01 7.1835353739000487e+00 0 0 0
36 1 2.0251394148673270e+01 2.5401787521754414e+01 5.6015686512215268e+00 0 0 0
37 2 2.3869794857164838e+01 2.5204251859420630e+01 4.1159199767932444e+00 0 0 0
38 3 2.3816800599799400e+01 2.5202759234657304e+01 7.2337095122332729e+00 0 0 0
39 1 8.1798139378660490e+00 1.0697201894600206e+00 5.6582850484369418e+00 0 1 0
40 2 1.1781084667284956e+01 9.0110724810279708e-01 4.1584654820881397e+00 0 1 0
41 3 1.1751105901863886e+01 8.9426671901984545e-01 7.2772401275719041e+00 0 1 0
42 1 1.0961951552116094e+01 2.5029511516922862e+00 5.7106749806704693e+00 0 1 0
43 2 1.4546537483524601e+01 2.3532974607367874e+00 4.1784230868907866e+00 0 1 0
44 3 1.4548229829977844e+01 2.3466445481740750e+00 7.2976481378849076e+00 0 1 0
45 2 3.3999151336762729e+01 1.2273286690545097e+01 4.1782995583017897e+00 -1 0 0
46 3 3.4001956250605041e+01 1.2241747628504726e+01 7.2968365105392650e+00 -1 0 0
47 2 3.6736501752758990e+01 1.3682190281502439e+01 4.1795281084855800e+00 -1 0 0
48 3 3.6743807081795644e+01 1.3680880020529836e+01 7.2984130188792307e+00 -1 0 0
49 1 3.5923185341022084e+01 1.5291399509008706e+01 5.7415533841460649e+00 -1 0 0
50 2 9.7522122237320410e+00 1.5089112881465947e+01 4.1584654826653615e+00 0 0 0
51 3 9.7612775364059097e+00 1.5118495517435941e+01 7.2772401280867465e+00 0 0 0
52 1 3.8668110457819232e+01 1.6714177112440417e+01 5.7062672251763802e+00 -1 0 0
53 2 1.2509562729456432e+01 1.6488955631870180e+01 4.1234579449510278e+00 0 0 0
54 3 1.2512280544742051e+01 1.6540246779816467e+01 7.2416233130037710e+00 0 0 0
55 1 1.1698870681283084e+01 1.8123598348646048e+01 5.6582850486216962e+00 0 0 0
56 2 1.5290060434327618e+01 1.7881824651241839e+01 4.0912896146516280e+00 0 0 0
57 3 1.5276022613727374e+01 1.7939974065576902e+01 7.2087162636066795e+00 0 0 0
58 1 1.4471057996244275e+01 1.9517959149621205e+01 5.6169245134683097e+00 0 0 0
59 2 1.8088673069362031e+01 1.9273449296091769e+01 4.0796430977187805e+00 0 0 0
60 3 1.8052016700444799e+01 1.9323482001711284e+01 7.1966453302903588e+00 0 0 0
61 1 1.7258483440522571e+01 2.0903986908598839e+01 5.6014005538144529e+00 0 0 0
62 2 2.0891640486805848e+01 2.0672533617200941e+01 4.0958089404370170e+00 0 0 0
63 3 2.0837978470218086e+01 2.0706287545902125e+01 7.2128942260930469e+00 0 0 0
64 1 2.0054071413174540e+01 2.2293991847207618e+01 5.6193963157608842e+00 0 0 0
65 2 2.3685284865299788e+01 2.2087476047706215e+01 4.1307264873700067e+00 0 0 0
66 3 2.3631432592107089e+01 2.2105927564830509e+01 7.2484123229678481e+00 0 0 0
67 1 2.2849833298083734e+01 2.3700653348846274e+01 5.6613905329701684e+00 0 0 0
68 2 2.6464095862530627e+01 2.3522444326090667e+01 4.1646995016386210e+00 0 0 0
69 3 2.6429542480118428e+01 2.3532166556045787e+01 7.2831660157185398e+00 0 0 0
70 1 2.5640533124344024e+01 2.5130477568416886e+01 5.7062672234102436e+00 0 0 0
71 2 2.9232115095711347e+01 2.4973648777009778e+01 4.1795281071367745e+00 0 0 0
72 3 2.9229597150290200e+01 2.4980630506235588e+01 7.2984130175982171e+00 0 0 0
73 1 1.3562840719119956e+01 8.3663904874272910e-01 5.7338373044652062e+00 0 1 0
74 2 1.7136600279825551e+01 6.8694970525572019e-01 4.1671978819181863e+00 0 1 0
75 3 1.7167416077257453e+01 6.9199578628325387e-01 7.2859285808248160e+00 0 1 0
76 1 1.6344434668465656e+01 2.2896937075634698e+00 5.7343869446688727e+00 0 1 0
77 2 1.9912510840743856e+01 2.1328501373947151e+00 4.1324449495336504e+00 0 1 0
78 3 1.9966071188985200e+01 2.1308825959729036e+00 7.2505691569213688e+00 0 1 0
79 2 3.3867418103592428e+01 9.1535139751707408e+00 4.1357178041717209e+00 -1 0 0
80 3 3.3855761120173526e+01 9.0998408625506926e+00 7.2535866283873336e+00 -1 0 0
81 1 3.3043109651623737e+01 1.0735932876622774e+01 5.7177355731945614e+00 -1 0 0
82 2 6.8889885433508748e+00 1.0558179083240953e+01 4.1671978817910924e+00 0 0 0
83 3 6.8779506805287562e+00 1.0528968777959024e+01 7.2859285806168153e+00 0 0 0
84 1 3.5790692911792199e+01 1.2154200323856207e+01 5.7367657304576749e+00 -1 0 0
85 2 9.6271194303837255e+00 1.1968065383787174e+01 4.1784230863197074e+00 0 0 0
86 3 9.6205116669771868e+00 1.1969926223921906e+01 7.2976481372361528e+00 0 0 0
87 1 8.8055030995517214e+00 1.3578300976705762e+01 5.7338373048917930e+00 0 0 0
88 2 1.2372383661683280e+01 1.3376960550285821e+01 4.1686982072083962e+00 0 0 0
89 3 1.2367569866345029e+01 1.3406745157630608e+01 7.2878716316256922e+00 0 0 0
90 1 1.1549016295715409e+01 1.4997581016599824e+01 5.7106749800800980e+00 0 0 0
91 2 1.5136395991338961e+01 1.4780090353848106e+01 4.1478888343266700e+00 0 0 0
92 3 1.5125634638692802e+01 1.4826292273857305e+01 7.2665625390092154e+00 0 0 0
93 1 1.4306672670786797e+01 1.6404695313941069e+01 5.6793915183730048e+00 0 0 0
94 2 1.7921388036779362e+01 1.6178315331786777e+01 4.1324449433937396e+00 0 0 0
95 3 1.7896311801871068e+01 1.6225683726462016e+01 7.2505691506220966e+00 0 0 0
96 1 1.7082115966905846e+01 1.7800231952214308e+01 5.6580567701431681e+00 0 0 0
97 2 2.0718211609878104e+01 1.7577967514952842e+01 4.1357177982201261e+00 0 0 0
98 3 2.0677557822340905e+01 1.7614899317593565e+01 7.2535866223574663e+00 0 0 0
99 1 1.9871267990376626e+01 1.9193137954357272e+01 5.6606022509396228e+00 0 0 0
100 2 2.3511990150780356e+01 1.8987646444144573e+01 4.1575245170790351e+00 0 0 0
101 3 2.3466044658032647e+01 1.9011643007577987e+01 7.2755258261247606e+00 0 0 0
102 1 2.2665714329565382e+01 2.0596539096652211e+01 5.6865377863347533e+00 0 0 0
103 2 2.6292422705711346e+01 2.0413835118146913e+01 4.1833217480196723e+00 0 0 0
104 3 2.6258567205345379e+01 2.0430263200208280e+01 7.3017152151046885e+00 0 0 0
105 1 2.5458068432590718e+01 2.2020353522594121e+01 5.7203130788940424e+00 0 0 0
106 2 2.9059348673982111e+01 2.1856534144870821e+01 4.1942521300388327e+00 0 0 0
107 3 2.9052570420340178e+01 2.1872442813261017e+01 7.3129387840103242e+00 0 0 0
108 1 2.8245157229442960e+01 2.3464691488595150e+01 5.7415533818391413e+00 0 0 0
109 2 3.1820936603754987e+01 2.3307485574499388e+01 4.1782995565096410e+00 0 0 0
110 3 3.1846847775895121e+01 2.3325684230953414e+01 7.2968365087944926e+00 0 0 0
111 1 3.1028297636161430e+01 2.4918549273146226e+01 5.7367657294087291e+00 0 0 0
112 2 3.4588605647725103e+01 2.4753287607854134e+01 4.1357178034837414e+00 0 0 0
113 3 3.4640916418697898e+01 2.4770028918118690e+01 7.2535866277505496e+00 0 0 0
114 1 1.8949209619530148e+01 6.2272022607123267e-01 5.7049616490909880e+00 0 1 0
115 2 2.2509332965934430e+01 4.4041007174802443e-01 4.0796431047736572e+00 0 1 0
116 3 2.2570990744660367e+01 4.4713906473307741e-01 7.1966453374779524e+00 0 1 0
117 1 2.1736767871044080e+01 2.0487227630555598e+00 5.6580567775816517e+00 0 1 0
118 2 2.5309976043075356e+01 1.8504330555958335e+00 4.0321316652697758e+00 0 1 0
119 3 2.5359643247105261e+01 1.8383322788725380e+00 7.1485625041575211e+00 0 1 0
120 2 3.0926385967340739e+01 4.6355938381632686e+00 4.0332009782695941e+00 -1 0 0
121 3 3.0919713376101008e+01 4.5833748586180727e+00 7.1495413804262427e+00 -1 0 0
122 2 3.9891126119390758e+00 6.0285259090875405e+00 4.0796431037583458e+00 0 0 0
123 3 3.9641112043058646e+00 5.9717642083739220e+00 7.1966453364052771e+00 0 0 0
124 1 3.2892111283405079e+01 7.6124540653031669e+00 5.6606022580322186e+00 -1 0 0
125 2 6.7532197679762387e+00 7.4312198043654538e+00 4.1324449475396676e+00 0 0 0
126 3 6.7247356544857446e+00 7.3858189510588748e+00 7.2505691548319238e+00 0 0 0
127 1 5.9270595124011178e+00 9.0205280877001854e+00 5.7049616485369858e+00 0 0 0
128 2 9.5003880593945436e+00 8.8449920941819009e+00 4.1720188025025751e+00 0 0 0
129 3 9.4791350703675299e+00 8.8224556972249406e+00 7.2911404070154697e+00 0 0 0
130 1 8.6730883717714011e+00 1.0442842624631416e+01 5.7343869436840933e+00 0 0 0
131 2 1.2244229992229467e+01 1.0264684800495390e+01 4.1886243264051375e+00 0 0 0
132 3 1.2233212310862408e+01 1.0267827536625884e+01 7.3082218206651746e+00 0 0 0
133 1 1.1415185671362162e+01 1.1870112577758048e+01 5.7410561382006815e+00 0 0 0
134 2 1.4998824392349068e+01 1.1682075786734766e+01 4.1844908477245033e+00 0 0 0
135 3 1.4993487491959813e+01 1.1704704947081137e+01 7.3040158761941214e+00 0 0 0
136 1 1.4164905932787443e+01 1.3291051106826012e+01 5.7288553617582068e+00 0 0 0
137 2 1.7772166608465451e+01 1.3092311657510406e+01 4.1720188010371029e+00 0 0 0
138 3 1.7763276009882695e+01 1.3121985486713450e+01 7.2911404055315998e+00 0 0 0
139 1 1.6929990124588748e+01 1.4699656062709437e+01 5.7113329155649719e+00 0 0 0
140 2 2.0561529821096297e+01 1.4497256482873714e+01 4.1671978791387607e+00 0 0 0
141 3 2.0541751885091109e+01 1.4521420708431497e+01 7.2859285779401706e+00 0 0 0
142 1 1.9710849512693589e+01 1.6099136959980537e+01 5.7049616440218847e+00 0 0 0
143 2 2.3354147419266145e+01 1.5903996830202109e+01 4.1782995546654886e+00 0 0 0
144 3 2.3325431331682612e+01 1.5917337237836550e+01 7.2968365068756205e+00 0 0 0
145 1 2.2500780804033564e+01 1.7500630125109758e+01 5.7177355674531212e+00 0 0 0
146 2 2.6136055657744020e+01 1.7320475488212082e+01 4.1984251874781799e+00 0 0 0
147 3 2.6110391277526940e+01 1.7327368969909546e+01 7.3169831840589730e+00 0 0 0
148 1 2.5290783186165235e+01 1.8916523194110546e+01 5.7419377851476154e+00 0 0 0
149 2 2.8901816594227380e+01 1.8750399416361795e+01 4.2103356504225378e+00 0 0 0
150 3 2.8893983056214484e+01 1.8759930732938169e+01 7.3289985194234495e+00 0 0 0
151 1 2.8075168953156094e+01 2.0351933539404524e+01 5.7592884598859708e+00 0 0 0
152 2 3.1656688984723832e+01 2.0190043041672510e+01 4.1984251888093160e+00 0 0 0
153 3 3.1675491102134384e+01 2.0208822305712982e+01 7.3169831854201908e+00 0 0 0
154 1 3.0853656517991048e+01 2.1800750866581410e+01 5.7531870886807450e+00 0 0 0
155 2 3.4412534140275227e+01 2.1628964955910710e+01 4.1575245211642784e+00 0 0 0
156 3 3.4456288518592181e+01 2.1656756637014368e+01 7.2755258302804533e+00 0 0 0
157 1 3.3630344904027375e+01 2.3248206096620393e+01 5.7177355714439262e+00 0 0 0
158 2 3.7181864067359442e+01 2.3055810747945337e+01 4.0958089460743912e+00 0 0 0
159 3 3.7237926835954859e+01 2.3085406451810261e+01 7.2128942318136495e+00 0 0 0
160 1 3.6410856088860477e+01 2.4679177080786641e+01 5.6606022573589492e+00 0 0 0
161 2 3.9971755327816652e+01 2.4465239137177861e+01 4.0332009770228829e+00 0 0 0
162 3 4.0020314587392342e+01 2.4485569989608091e+01 7.1495413791774283e+00 0 0 0
163 1 2.4336514775114381e+01 3.4410657652494203e-01 5.6014005605443264e+00 0 1 0
164 1 2.7131305213182081e+01 1.7316110661265667e+00 5.5639883500595166e+00 0 1 0
165 1 2.9927394146017718e+01 3.1106211245459359e+00 5.5643213784797600e+00 -1 0 0
166 2 3.8099067964136220e+00 2.8980863672209103e+00 4.0321316620792889e+00 0 0 0
167 3 3.7745936176813744e+00 2.8611236933658026e+00 7.1485625009142577e+00 0 0 0
168 1 2.9921204340680818e+00 4.4942917928926089e+00 5.6014005594637277e+00 0 0 0
169 2 6.5936012244547468e+00 4.3006685955245141e+00 4.0912896179645646e+00 0 0 0
170 3 6.5502612664658715e+00 4.2594367771026000e+00 7.2087162669772127e+00 0 0 0
171 1 5.7682348090713500e+00 5.8934305602944912e+00 5.6580567749444937e+00 0 0 0
172 2 9.3566141421311428e+00 5.7184584332758375e+00 4.1478888366360911e+00 0 0 0
173 3 9.3219827833141586e+00 5.6860378682380439e+00 7.2665625413694936e+00 0 0 0
174 1 8.5294752155466842e+00 7.3119736623249887e+00 5.7113329183629302e+00 0 0 0
175 2 1.2108359257393571e+01 7.1483252170467972e+00 4.1844908487161581e+00 0 0 0
176 3 1.2091430280131449e+01 7.1323887467130813e+00 7.3040158772126507e+00 0 0 0
177 1 1.1281167263991243e+01 8.7441590786107994e+00 5.7445064177513308e+00 0 0 0
178 2 1.4862372880994306e+01 8.5807950897207199e+00 4.1957463677460503e+00 0 0 0
179 3 1.4862372879864569e+01 8.5807950904539574e+00 7.3155311036646573e+00 0 0 0
180 1 1.4033047239017803e+01 1.0177493023802867e+01 5.7530400270062625e+00 0 0 0
181 2 1.7629735591578445e+01 1.0006228486464614e+01 4.1886243275156660e+00 0 0 0
182 3 1.7637966119462213e+01 1.0014198712086618e+01 7.3082218218079138e+00 0 0 0
183 1 1.6794453052809882e+01 1.1600528136574308e+01 5.7445064172927385e+00 0 0 0
184 2 2.0413461729854486e+01 1.1421022426057714e+01 4.1784230873400343e+00 0 0 0
185 3 2.0418377144722303e+01 1.1425814500078879e+01 7.2976481382973901e+00 0 0 0
186 1 1.9569595602687176e+01 1.3009848939841882e+01 5.7343869426201559e+00 0 0 0
187 2 2.3205618511141054e+01 1.2828930036705591e+01 4.1795281086218896e+00 0 0 0
188 3 2.3200831125800924e+01 1.2823258570308219e+01 7.2984130190535943e+00 0 0 0
189 1 2.2355244810635885e+01 1.4412019500258413e+01 5.7367657282872129e+00 0 0 0
190 2 2.5991502180150952e+01 1.4237867244597769e+01 4.1942521320679784e+00 0 0 0
191 3 2.5981113993722069e+01 1.4224042773759182e+01 7.3129387860300366e+00 0 0 0
192 1 2.5142657994632518e+01 1.5819675060728594e+01 5.7531870882811154e+00 0 0 0
193 2 2.8760259802824379e+01 1.5654507828596619e+01 4.2103356519236499e+00 0 0 0
194 3 2.8755922208625957e+01 1.5642958130681729e+01 7.3289985209286979e+00 0 0 0
195 1 2.7923642738948342e+01 1.7242633626553797e+01 5.7704841793973944e+00 0 0 0
196 2 3.1512158961851263e+01 1.7079861848092708e+01 4.2103356519095696e+00 0 0 0
197 3 3.1524330091175532e+01 1.7081880233112933e+01 7.3289985209077093e+00 0 0 0
198 1 3.0695482410653380e+01 1.8680868149938494e+01 5.7704841798670135e+00 0 0 0
199 2 3.4257433483672720e+01 1.8507945394703171e+01 4.1833217511767513e+00 0 0 0
200 3 3.4288588369411350e+01 1.8529051076367459e+01 7.3017152182661196e+00 0 0 0
201 1 3.3461543078637185e+01 2.0124046624556346e+01 5.7419377882094578e+00 0 0 0
202 2 3.7010417966878329e+01 1.9928972533177888e+01 4.1307264914266897e+00 0 0 0
203 3 3.7053323586976958e+01 1.9966384209970748e+01 7.2484123270410814e+00 0 0 0
204 1 3.6229013959636887e+01 2.1557414991943293e+01 5.6865377912523387e+00 0 0 0
205 1 3.9004872623191375e+01 2.2970437730331902e+01 5.6193963208386277e+00 0 0 0
206 1 5.5861684056248784e+00 2.7733244274153446e+00 5.6169245159661996e+00 0 0 0
207 1 8.3645266375881437e+00 4.1875944786057469e+00 5.6793915207287080e+00 0 0 0
208 2 1.1953766362080142e+01 4.0263184413725881e+00 4.1686982083526996e+00 0 0 0
209 3 1.1930379033360579e+01 4.0072572677369962e+00 7.2878716328282067e+00 0 0 0
210 1 1.1131904986982740e+01 5.6216429863844422e+00 5.7288553633585932e+00 0 0 0
211 2 1.4713153059478232e+01 5.4714719827538660e+00 4.1886243277256563e+00 0 0 0
212 3 1.4715940210025904e+01 5.4603590229365295e+00 7.3082218220425403e+00 0 0 0
213 1 1.3894254728893102e+01 7.0642290495849851e+00 5.7530400278438787e+00 0 0 0
214 2 1.7479934993716999e+01 6.9119842661823023e+00 4.1844908505787899e+00 0 0 0
215 3 1.7502200868560433e+01 6.9052915779708526e+00 7.3040158791271654e+00 0 0 0
216 1 1.6659816673835383e+01 8.5006631970137185e+00 5.7530400284307932e+00 0 0 0
217 2 2.0260968620364242e+01 8.3391062794595676e+00 4.1686982113225364e+00 0 0 0
218 3 2.0289169742499087e+01 8.3283828469894754e+00 7.2878716358456730e+00 0 0 0
219 1 1.9434598990071024e+01 9.9214880423500897e+00 5.7410561404546261e+00 0 0 0
220 2 2.3053821753613398e+01 9.7521651423743627e+00 4.1584654864909183e+00 0 0 0
221 3 2.3074735205280145e+01 9.7296230364404170e+00 7.2772401320205962e+00 0 0 0
222 1 2.2218774824301565e+01 1.1327445246925278e+01 5.7338373066942454e+00 0 0 0
223 2 2.5846408047954920e+01 1.1157357290566004e+01 4.1646995070418731e+00 0 0 0
224 3 2.5855265038758446e+01 1.1122572071164903e+01 7.2831660211706204e+00 0 0 0
225 1 2.5005892787863342e+01 1.2728678099711674e+01 5.7415533850121694e+00 0 0 0
226 2 2.8624379170400303e+01 1.2562988582008703e+01 4.1833217531603575e+00 0 0 0
227 3 2.8627079783283566e+01 1.2525454820771692e+01 7.3017152202924134e+00 0 0 0
228 1 2.7786614386492495e+01 1.4137842911494225e+01 5.7592884629873433e+00 0 0 0
229 2 3.1381490716799174e+01 1.3974250563970037e+01 4.1984251908325376e+00 0 0 0
230 3 3.1388352977218080e+01 1.3948577821365966e+01 7.3169831874357616e+00 0 0 0
231 1 3.0555110207156503e+01 1.5561267320148362e+01 5.7704841811316658e+00 0 0 0
232 2 3.4123384505187367e+01 1.5390367704720010e+01 4.1942521325362225e+00 0 0 0
233 3 3.4140550943060497e+01 1.5388283509959154e+01 7.3129387864719630e+00 0 0 0
234 1 3.3312452017733172e+01 1.6994992646087216e+01 5.7592884624472687e+00 0 0 0
235 1 3.6065896370271183e+01 1.8427258191012804e+01 5.7203130824100290e+00 0 0 0
236 1 1.3737333981039006e+01 3.9507846512449198e+00 5.7410561393377924e+00 0 0 0
237 2 1.7314563976119469e+01 3.8050815192152085e+00 4.1720188043971165e+00 0 0 0
238 3 1.7344707561711001e+01 3.7979440883212332e+00 7.2911404089989755e+00 0 0 0
239 1 1.6511498325462728e+01 5.3976980558061030e+00 5.7445064195997144e+00 0 0 0
240 2 2.0094108511450166e+01 5.2438364853376074e+00 4.1478888402292426e+00 0 0 0
241 3 2.0139501221845791e+01 5.2300551308499994e+00 7.2665625450640450e+00 0 0 0
242 1 1.9290307723383787e+01 6.8296911786042331e+00 5.7288553663685651e+00 0 0 0
243 2 2.2887445884689502e+01 6.6643081843250345e+00 4.1234579514587573e+00 0 0 0
244 3 2.2930506413436081e+01 6.6363089151204449e+00 7.2416233196709880e+00 0 0 0
245 1 2.2076150796367266e+01 8.2418531047793060e+00 5.7106749852636360e+00 0 0 0
246 2 2.5687070503433056e+01 8.0697229497629941e+00 4.1159199840608087e+00 0 0 0
247 3 2.5714860281298972e+01 8.0245748896134064e+00 7.2337095196053340e+00 0 0 0
248 1 2.4865591778050003e+01 9.6401144176044351e+00 5.7062672294767145e+00 0 0 0
249 2 2.8478532529318425e+01 9.4683205174060454e+00 4.1307264951599079e+00 0 0 0
250 3 2.8489479182766733e+01 9.4124573237242775e+00 7.2484123308560671e+00 0 0 0
251 1 2.7650270556658082e+01 1.1037157384738164e+01 5.7203130854320863e+00 0 0 0
252 2 3.1249711069555786e+01 1.0868157696480619e+01 4.1575245236101344e+00 0 0 0
253 3 3.1251902183257783e+01 1.0816369453346791e+01 7.2755258327329253e+00 0 0 0
254 1 3.0421909093561524e+01 1.2444199278985312e+01 5.7419377905146769e+00 0 0 0
255 1 3.3177920845094832e+01 1.3864343169796708e+01 5.7531870909428520e+00 0 0 0
256 1 1.9127653304049222e+01 3.7307555478651571e+00 5.7113329210799968e+00 0 0 0
257 2 2.2703456988093990e+01 3.5598920294002312e+00 4.0912896222192705e+00 0 0 0
258 3 2.2760834768174835e+01 3.5429744317801330e+00 7.2087162713376465e+00 0 0 0
259 1 2.1915919337496259e+01 5.1500954818463773e+00 5.6793915255383558e+00 0 0 0
260 2 2.5506826946452101e+01 4.9679016046296569e+00 4.0646468478006019e+00 0 0 0
261 3 2.5549166516194330e+01 4.9304281543786033e+00 7.1816058783501928e+00 0 0 0
262 1 2.4708434027817116e+01 6.5490667375108949e+00 5.6582850553431268e+00 0 0 0
263 2 2.8310906813858562e+01 6.3637037554359983e+00 4.0667419547111994e+00 0 0 0
264 3 2.8328989561969067e+01 6.3076113811334169e+00 7.1835353820138277e+00 0 0 0
265 1 2.7499205789576841e+01 7.9382095863193243e+00 5.6613905411993466e+00 0 0 0
266 2 3.1100730808361789e+01 7.7564247353574185e+00 4.0958089483543274e+00 0 0 0
267 3 3.1098330058056796e+01 7.6930751015209138e+00 7.2128942341073294e+00 0 0 0
268 1 3.0279507072121987e+01 9.3308150110718806e+00 5.6865377942715698e+00 0 0 0
269 1 2.4529892247098548e+01 3.4511017002234183e+00 5.6169245209752416e+00 0 0 0
270 2 2.8120500877503254e+01 3.2458811951478079e+00 4.0140534298875536e+00 0 0 0
271 3 2.8142868947931689e+01 3.2112480955007796e+00 7.1302853286770151e+00 0 0 0
272 1 2.7325199956852295e+01 4.8373281868486533e+00 5.6015686582937789e+00 0 0 0
273 1 3.0115291328222753e+01 6.2203395245469872e+00 5.6193963237391644e+00 0 0 0
274 5 4.2802254041761849e+01 2.5623041349846012e+01 1.0569143464023023e+01 -1 0 0
275 6 4.2779464119839737e+01 2.5624521866610433e+01 1.3685224349795122e+01 -1 0 0
276 5 3.0513822725945559e+01 1.6054088923264795e+00 1.0569143464657948e+01 -1 1 0
277 6 3.0526499847488374e+01 1.6244052870447681e+00 1.3685224350429792e+01 -1 1 0
278 5 3.7792878636768997e+01 1.9106075858094837e+01 1.0437424314127847e+01 -1 0 0
279 6 3.7749818105990059e+01 1.9078076589333453e+01 1.3555589682265159e+01 -1 0 0
280 5 4.0411538738692570e+01 2.0811956618819295e+01 1.0497441756295247e+01 -1 0 0
281 6 4.0369199167740234e+01 2.0774483170605532e+01 1.3614400786773681e+01 -1 0 0
282 5 1.3280496700810373e+01 2.2531136677788982e+01 1.0548762305221885e+01 0 0 0
283 6 1.3258128630101533e+01 2.2496503581565733e+01 1.3664994203982159e+01 0 0 0
284 4 4.1993677436214114e+01 2.4010773709325157e+01 1.2115059281698597e+01 -1 0 0
285 5 1.5858158536423264e+01 2.4256318801082383e+01 1.0569143466888155e+01 0 0 0
286 6 1.5868271331704193e+01 2.4235841896071452e+01 1.3685224352648239e+01 0 0 0
287 4 6.2316641452776680e-07 4.6593511379898427e-07 1.2135939187244237e+01 0 1 0
288 5 3.5719607187768179e+00 2.3567932363282948e-01 1.0548762306265312e+01 0 1 0
289 6 3.6131378950069672e+00 2.3362455877165206e-01 1.3664994205002056e+01 0 1 0
290 4 2.5925526049530299e+00 1.7308099941777979e+00 1.2114726254018073e+01 0 1 0
291 5 6.1604296776667287e+00 1.9450461472352401e+00 1.0495512253992617e+01 0 1 0
292 6 6.2180484719041242e+00 1.9574322174357253e+00 1.3612305681191557e+01 0 1 0
293 5 3.5280749367395437e+01 1.4316570273479812e+01 1.0381399491568132e+01 -1 0 0
294 6 3.5275833949786779e+01 1.4321362345515702e+01 1.3500624542566259e+01 -1 0 0
295 5 3.7937107428385346e+01 1.6012761736834847e+01 1.0401807501149031e+01 -1 0 0
296 6 3.7916193974059119e+01 1.5990219629660674e+01 1.3520582146653206e+01 -1 0 0
297 4 3.6938523018899218e+01 1.7500531668416119e+01 1.1968372647792837e+01 -1 0 0
298 5 1.0852488034542590e+01 1.7717809883994406e+01 1.0445338116036790e+01 0 0 0
299 6 1.0824698254858452e+01 1.7672661823730753e+01 1.3563127651506734e+01 0 0 0
300 4 3.9570806249946557e+01 1.9193318036385687e+01 1.2020762579623229e+01 -1 0 0
301 5 1.3466617314446312e+01 1.9434773392979142e+01 1.0495512254492402e+01 0 0 0
302 6 1.3448534565750167e+01 1.9378681019922560e+01 1.3612305681722479e+01 0 0 0
303 4 1.2462827709374579e+01 2.0905056588039937e+01 1.2077478977038412e+01 0 0 0
304 5 1.6057341128401774e+01 2.1159009915778718e+01 1.0529506255167142e+01 0 0 0
305 6 1.6064013720093584e+01 2.1106790938697706e+01 1.3645846657276731e+01 0 0 0
306 4 1.5065021898840563e+01 2.2631763651081176e+01 1.2114726255583244e+01 0 0 0
307 5 1.8636965840060995e+01 2.2881261081014369e+01 1.0530485132587977e+01 0 0 0
308 6 1.8672279019689558e+01 2.2844298410277904e+01 1.3646915971380501e+01 0 0 0
309 4 1.7658711573505716e+01 2.4362204743871150e+01 1.2115059284956173e+01 0 0 0
310 5 2.1220037785627234e+01 2.4591440985130692e+01 1.0497441759431192e+01 0 0 0
311 6 2.1273660529989641e+01 2.4573510568582321e+01 1.3614400789830716e+01 0 0 0
312 4 5.3890218809446919e+00 3.4059725392456175e-01 1.2077478978329918e+01 0 1 0
313 5 8.9544283333118866e+00 5.3962553943485247e-01 1.0445338117041496e+01 0 1 0
314 6 9.0074225912151622e+00 5.3813291707592403e-01 1.3563127652426447e+01 0 1 0
315 4 7.9874610329149363e+00 2.0417314265244211e+00 1.2017657095055306e+01 0 1 0
316 5 1.1567170216251030e+01 2.2102182183110219e+00 1.0395881612411992e+01 0 1 0
317 6 1.1601723599031912e+01 2.2199404496301076e+00 1.3514348126439399e+01 0 1 0
318 5 3.2758684018149978e+01 9.5167010475654337e+00 1.0428478473836305e+01 -1 0 0
319 6 3.2783760251372442e+01 9.5640694409541176e+00 1.3546602681204552e+01 -1 0 0
320 5 3.5404124104585115e+01 1.1220964064945893e+01 1.0393119049495882e+01 -1 0 0
321 6 3.5423902037987688e+01 1.1245128288582441e+01 1.3511849748391258e+01 -1 0 0
322 4 3.4431967822505435e+01 1.2732535833309354e+01 1.1944660685303848e+01 -1 0 0
323 5 8.3384588779670423e+00 1.2919126203051364e+01 1.0380634611983741e+01 0 0 0
324 6 8.3432462605645643e+00 1.2913454734562254e+01 1.3499519522448795e+01 0 0 0
325 4 3.7081147045465713e+01 1.4414939525871143e+01 1.1945210324769995e+01 -1 0 0
326 5 1.0992892791527778e+01 1.4619812702912421e+01 1.0395881613168868e+01 0 0 0
327 6 1.0984035798680129e+01 1.4585027481688176e+01 1.3514348127266871e+01 0 0 0
328 4 1.0003219530353300e+01 1.6102270355771871e+01 1.1972780405170466e+01 0 0 0
329 5 1.3627106935245262e+01 1.6329927451409741e+01 1.0430635305611125e+01 0 0 0
330 6 1.3616160281041791e+01 1.6274064256614491e+01 1.3548321141229996e+01 0 0 0
331 4 1.2636833541805997e+01 1.7804175188205161e+01 1.2017657095382541e+01 0 0 0
332 5 1.6235957810157316e+01 1.8049309674438501e+01 1.0466153402754253e+01 0 0 0
333 6 1.6238358561038872e+01 1.7985960040500146e+01 1.3583238688419833e+01 0 0 0
334 4 1.5252919080449463e+01 1.9522045251092035e+01 1.2059651312975419e+01 0 0 0
335 5 1.8826483425911810e+01 1.9770620567843032e+01 1.0482402299266393e+01 0 0 0
336 6 1.8851484834901097e+01 1.9713858867996475e+01 1.3599404531832812e+01 0 0 0
337 4 1.7854492656089359e+01 2.1248092983374775e+01 1.2077647075767670e+01 0 0 0
338 5 2.1412633489011874e+01 2.1482947998834433e+01 1.0470331366681659e+01 0 0 0
339 6 2.1455973448409111e+01 2.1441716181913932e+01 1.3587758015619611e+01 0 0 0
340 4 2.0448540628741387e+01 2.2969060348921186e+01 1.2062123116985262e+01 0 0 0
341 5 2.4006703911801935e+01 2.3176555196604056e+01 1.0437424317625505e+01 0 0 0
342 6 2.4052482256736422e+01 2.3153263319213938e+01 1.3555589685657795e+01 0 0 0
343 4 2.3042186162616591e+01 2.4672664586627505e+01 1.2020762582296618e+01 0 0 0
344 5 2.6613478127491863e+01 2.4848118055878682e+01 1.0401807502360555e+01 0 0 0
345 6 2.6643456893627466e+01 2.4841277528537230e+01 1.3520582147771682e+01 0 0 0
346 4 1.0778160858388787e+01 6.1190720747268568e-01 1.1972780405639499e+01 0 1 0
347 5 1.4367224884845740e+01 7.6175426861669138e-01 1.0380634611023526e+01 0 1 0
348 6 1.4369742830880501e+01 7.6873599929485770e-01 1.3499519521421256e+01 0 1 0
349 4 1.3382784965904159e+01 2.2776932874565237e+00 1.1937494246135396e+01 0 1 0
350 5 1.6984475512196180e+01 2.4167005444123495e+00 1.0382211118740470e+01 0 1 0
351 6 1.6958564340858093e+01 2.4348992018167075e+00 1.3500748070991374e+01 0 1 0
352 5 3.0315253994625706e+01 4.6994554702887772e+00 1.0530485126435396e+01 -1 0 0
353 6 3.0329608015815086e+01 4.7485189188642272e+00 1.3646915965313552e+01 -1 0 0
354 5 3.2914388911000486e+01 6.4189027717014797e+00 1.0482402293670960e+01 -1 0 0
355 6 3.2951045278888273e+01 6.4689354780770918e+00 1.3599404526354300e+01 -1 0 0
356 4 3.1944488179262013e+01 7.9421528224054105e+00 1.2020990853331389e+01 -1 0 0
357 5 5.8151855675408761e+00 8.1274854555974727e+00 1.0425461003311375e+01 0 0 0
358 6 5.8558393531633302e+00 8.1644172575218494e+00 1.3543329827555242e+01 0 0 0
359 4 3.4573221728201148e+01 9.6432478135045780e+00 1.1974085981673667e+01 -1 0 0
360 5 8.4630590801849603e+00 9.8250475356200564e+00 1.0382211121661751e+01 0 0 0
361 6 8.4917751655253539e+00 9.8383879414110211e+00 1.3500748073935323e+01 0 0 0
362 4 7.4928725595374024e+00 1.1330365272726594e+01 1.1942281900735976e+01 0 0 0
363 5 1.1118741744323049e+01 1.1518342000671703e+01 1.0366108845650063e+01 0 0 0
364 6 1.1129129928937786e+01 1.1504517527339170e+01 1.3484795499624557e+01 0 0 0
365 4 1.0143520538579585e+01 1.3013706673687469e+01 1.1937494247530523e+01 0 0 0