LAMMPS data file via write_data, version 30 Mar 2018, timestep = 1825

508 atoms
2 atom types

0.0000000000000000e+00 2.7722791854699999e+01 xlo xhi
0.0000000000000000e+00 2.4008642419400001e+01 ylo yhi
0.0000000000000000e+00 1.0000000000000000e+02 zlo zhi
1.3861395218300000e+01 0.0000000000000000e+00 0.0000000000000000e+00 xy xz yz

Masses

1 12.011
2 12.011

Atoms # atomic

1 1 2.6304097006784080e+01 6.5852839685902845e-02 9.9853829090781659e+01 -1 1 -1
2 1 7.6637871167700378e-01 1.1956993778418932e+00 9.9853829376443329e+01 0 1 -1
3 1 3.7867131066837906e+01 2.0486402021825974e+01 9.9877595483747044e+01 -1 0 -1
4 1 4.0051525590660887e+01 2.1617157540595247e+01 9.9859988382455413e+01 -1 0 -1
5 1 3.9399183019188655e+01 2.2878739280700799e+01 9.9857959296057004e+01 -1 0 -1
6 1 1.4513712994875309e+01 2.2747089249055556e+01 9.9853829206351634e+01 0 0 -1
7 1 1.3861395773253051e+01 2.4008642079576305e+01 9.9851745035618706e+01 0 0 -1
8 1 1.6698813169870512e+01 2.3877060064112349e+01 9.9859988941457843e+01 0 0 -1
9 1 2.1850634580812525e+00 1.1299643084817159e+00 9.9857942250153897e+01 0 1 -1
10 1 5.0221729750236159e+00 9.9929097465629391e-01 9.9877692119194236e+01 0 1 -1
11 1 3.5573566873468550e+01 1.6894858384966682e+01 9.9924704719216720e+01 -1 0 -1
12 1 3.7755186546706469e+01 1.8028235029519614e+01 9.9898956652685328e+01 -1 0 -1
13 1 3.7102354527036418e+01 1.9289819984026032e+01 9.9892352104535036e+01 -1 0 -1
14 1 1.2215721241220386e+01 1.9159667478458321e+01 9.9877691181317189e+01 0 0 -1
15 1 3.9285803797851450e+01 2.0421122256108173e+01 9.9869960948842362e+01 -1 0 -1
16 1 1.4400141032591934e+01 2.0289999427306292e+01 9.9866043426362467e+01 0 0 -1
17 1 1.3747442429343433e+01 2.1551339721231567e+01 9.9857941802245946e+01 0 0 -1
18 1 1.6585157492433019e+01 2.1420057285357700e+01 9.9865985856307702e+01 0 0 -1
19 1 1.5932422652417905e+01 2.2681323938851367e+01 9.9857959692554772e+01 0 0 -1
20 1 1.8770273485218503e+01 2.2550696661545697e+01 9.9877596368468375e+01 0 0 -1
21 1 1.8117470997718826e+01 2.3811943145640583e+01 9.9869961756591692e+01 0 0 -1
22 1 2.0955080765994182e+01 2.3682833379659535e+01 9.9898957790323195e+01 0 0 -1
23 1 6.4407501538827869e+00 9.3542558926747588e-01 9.9892092325218869e+01 0 1 -1
24 1 9.2779923393668700e+00 8.0889844518158704e-01 9.9924847683968991e+01 0 1 -1
25 1 8.6247906543517399e+00 2.0700274182588556e+00 9.9919482181751135e+01 0 1 -1
26 1 1.1461784204600530e+01 1.9466170677416437e+00 9.9946767064929176e+01 0 1 -1
27 1 3.3288186026784729e+01 1.3298253242488054e+01 9.9953943183295792e+01 -1 0 -1
28 1 3.5466208728657200e+01 1.4434476885506429e+01 9.9943961381158942e+01 -1 0 -1
29 1 3.4812507998686684e+01 1.5696103867577708e+01 9.9939614055465313e+01 -1 0 -1
30 1 9.9229267236452596e+00 1.5569216109894615e+01 9.9924846591939342e+01 0 0 -1
31 1 3.6992235615378434e+01 1.6830696602657778e+01 9.9915773360434983e+01 -1 0 -1
32 1 1.2104551356624864e+01 1.6701881273885576e+01 9.9904051279729828e+01 0 0 -1
33 1 1.1451123606221104e+01 1.7963076290766004e+01 9.9892091228148615e+01 0 0 -1
34 1 1.4287951898530929e+01 1.7832998826904372e+01 9.9888851481474305e+01 0 0 -1
35 1 1.3634497906563261e+01 1.9093943636519615e+01 9.9875672241133159e+01 0 0 -1
36 1 1.6472460705336957e+01 1.8963480485131303e+01 9.9883262585561411e+01 0 0 -1
37 1 1.5818927094885140e+01 2.0224248020927124e+01 9.9869952566574938e+01 0 0 -1
38 1 1.8657513531847854e+01 2.0094158495905344e+01 9.9888523940813755e+01 0 0 -1
39 1 1.8003901789656794e+01 2.1354844403798559e+01 9.9875825361485099e+01 0 0 -1
40 1 2.0842616488057800e+01 2.1225990394496925e+01 9.9903704060013112e+01 0 0 -1
41 1 2.0188932196099017e+01 2.2486671762098560e+01 9.9892353166133191e+01 0 0 -1
42 1 2.3027423624345083e+01 2.2360183701914831e+01 9.9924705778388429e+01 0 0 -1
43 1 2.2373654925988561e+01 2.3620867737542834e+01 9.9915774502236758e+01 0 0 -1
44 1 2.5211855535441519e+01 2.3497399629938855e+01 9.9943962092130079e+01 0 0 -1
45 1 1.0696541372712058e+01 7.4937863758983425e-01 9.9938682527705083e+01 0 1 -1
46 1 1.3534656940962936e+01 6.2822737344330126e-01 9.9953587464779659e+01 0 1 -1
47 1 1.2880408136768162e+01 1.8886718865412566e+00 9.9952769493411381e+01 0 1 -1
48 1 1.5718880656606705e+01 1.7681047623919506e+00 9.9949954528716077e+01 0 1 -1
49 1 3.1004864900359653e+01 9.7019613062395891e+00 9.9934226317341214e+01 -1 0 -1
50 1 3.3183318092473684e+01 1.0836954615059335e+01 9.9948728792742997e+01 -1 0 -1
51 1 3.2529053028325649e+01 1.2098395920709569e+01 9.9953714996593305e+01 -1 0 -1
52 1 7.6381286520544638e+00 1.1973172010369927e+01 9.9953587361158540e+01 0 0 -1
53 1 3.4706871850481775e+01 1.3234791198619575e+01 9.9951872892813668e+01 -1 0 -1
54 1 9.8163239566116225e+00 1.3109137561541871e+01 9.9946766382185970e+01 0 0 -1
55 1 9.1621065164896258e+00 1.4370476528500753e+01 9.9938681665994679e+01 0 0 -1
56 1 1.1996222522204400e+01 1.4243516818134895e+01 9.9932444030869632e+01 0 0 -1
57 1 1.1341697288723664e+01 1.5504340807791381e+01 9.9919481069358255e+01 0 0 -1
58 1 1.4178175920693015e+01 1.5376022119455319e+01 9.9917815546040430e+01 0 0 -1
59 1 1.3523418742459160e+01 1.6636366106327447e+01 9.9902041736436971e+01 0 0 -1
60 1 1.6361787677326994e+01 1.6507355628259802e+01 9.9908769786427570e+01 0 0 -1
61 1 1.5706870187337611e+01 1.7767351416674963e+01 9.9892115640870415e+01 0 0 -1
62 1 1.8546393505912025e+01 1.7638404490332267e+01 9.9908325910336458e+01 0 0 -1
63 1 1.7891364013845749e+01 1.8898216360260921e+01 9.9892250773843600e+01 0 0 -1
64 1 2.0731400970764604e+01 1.8770123810516388e+01 9.9916874510141099e+01 0 0 -1
65 1 2.0076350577142101e+01 2.0029930213127592e+01 9.9902576617469720e+01 0 0 -1
66 1 2.2916317977095026e+01 1.9903793768745338e+01 9.9931686373040321e+01 0 0 -1
67 1 2.2261373461750559e+01 2.1163732117210241e+01 9.9920459492786847e+01 0 0 -1
68 1 2.5100805614352332e+01 2.1040321293604034e+01 9.9946573257987254e+01 0 0 -1
69 1 2.4446104927818290e+01 2.2300464671245319e+01 9.9939614908376967e+01 0 0 -1
70 1 2.7284865457322031e+01 2.2179288453028978e+01 9.9953943295640002e+01 0 0 -1
71 1 2.6630482254266688e+01 2.3439637429580234e+01 9.9951873215650494e+01 0 0 -1
72 1 2.9468846520940666e+01 2.3319119398707176e+01 9.9948728269058094e+01 0 0 -1
73 1 1.4953289000438053e+01 5.7094845386035520e-01 9.9951602144903504e+01 0 1 -1
74 1 1.7791680952683059e+01 4.4918664112846224e-01 9.9931537328102593e+01 0 1 -1
75 1 1.7137583624254678e+01 1.7096792494792510e+00 9.9938943639985609e+01 0 1 -1
76 1 1.9976291928745894e+01 1.5852402462116570e+00 9.9908769501667464e+01 0 1 -1
77 1 3.0897080834390383e+01 7.2424455373891368e+00 9.9908326453767131e+01 -1 0 -1
78 1 3.0243335667435595e+01 8.5036479348333796e+00 9.9920094640146615e+01 -1 0 -1
79 1 5.3545630252549223e+00 8.3760013193488536e+00 9.9931538329252277e+01 0 0 -1
80 1 3.2423608717612971e+01 9.6375352071506164e+00 9.9939028625671085e+01 -1 0 -1
81 1 7.5331796334147443e+00 9.5116400263150513e+00 9.9949955052711744e+01 0 0 -1
82 1 6.8792076965311537e+00 1.0773240023832740e+01 9.9951602474677955e+01 0 0 -1
83 1 9.7114474329658300e+00 1.0648338474180921e+01 9.9957311835681324e+01 0 0 -1
84 1 9.0568300150371694e+00 1.1909545780225306e+01 9.9952769196220288e+01 0 0 -1
85 1 1.1890645440298465e+01 1.1784430830638856e+01 9.9953716848299223e+01 0 0 -1
86 1 1.1235118920195093e+01 1.3044904526548248e+01 9.9943728358028864e+01 0 0 -1
87 1 1.4071472251657863e+01 1.2918824020391602e+01 9.9944482515091664e+01 0 0 -1
88 1 1.3415156634991025e+01 1.4178521439309241e+01 9.9930514989337766e+01 0 0 -1
89 1 1.6254045163928467e+01 1.4051600380280320e+01 9.9935648500509089e+01 0 0 -1
90 1 1.5597242295076606e+01 1.5310674142504489e+01 9.9919708257002299e+01 0 0 -1
91 1 1.8437944533089606e+01 1.5183453818045187e+01 9.9931537705641631e+01 0 0 -1
92 1 1.7780916714101586e+01 1.6442154933195802e+01 9.9915671841776415e+01 0 0 -1
93 1 2.0622504507672616e+01 1.6315302793079198e+01 9.9934225958579262e+01 0 0 -1
94 1 1.9965499384799912e+01 1.7573963196709503e+01 9.9920094266584428e+01 0 0 -1
95 1 2.2807118630891530e+01 1.7448460881900449e+01 9.9942683939403693e+01 0 0 -1
96 1 2.2150440553445840e+01 1.8707386838628647e+01 9.9931700309272472e+01 0 0 -1
97 1 2.4991308517127536e+01 1.8584006277558355e+01 9.9952589009428550e+01 0 0 -1
98 1 2.4335272846321232e+01 1.9843418598561943e+01 9.9945799553553897e+01 0 0 -1
99 1 2.7174774628822043e+01 1.9721960948112724e+01 9.9957736321650430e+01 0 0 -1
100 1 2.6519628394482524e+01 2.0981961551916193e+01 9.9955296232793728e+01 0 0 -1
101 1 2.9357767020207568e+01 2.0861259540800976e+01 9.9952265407600365e+01 0 0 -1
102 1 2.8703538874617848e+01 2.2121788571895166e+01 9.9953714689152747e+01 0 0 -1
103 1 3.1541006164901248e+01 2.2000020097740823e+01 9.9934225358290846e+01 0 0 -1
104 1 3.0887428882079668e+01 2.3260901337531298e+01 9.9939027752643824e+01 0 0 -1
105 1 3.3724901312811625e+01 2.3136434052631547e+01 9.9908325293211348e+01 0 0 -1
106 1 1.9210262000381562e+01 3.8883876828359315e-01 9.9915671372465482e+01 0 1 -1
107 1 2.2048021924004047e+01 2.6133206156375155e-01 9.9883262182224613e+01 0 1 -1
108 1 2.1394939030970971e+01 1.5224174426778934e+00 9.9892115390401415e+01 0 1 -1
109 1 2.4232980806250740e+01 1.3927540333382642e+00 9.9866043367890555e+01 0 1 -1
110 1 2.8602691627719214e+01 3.6531389231511793e+00 9.9865986071279579e+01 -1 0 -1
111 1 3.0637060184287868e+00 4.7838290165020227e+00 9.9883263195544799e+01 0 0 -1
112 1 3.0133566574034766e+01 6.0452673828379924e+00 9.9892251241724125e+01 -1 0 -1
113 1 5.2461089759782054e+00 5.9160457955190164e+00 9.9908770637297536e+01 0 0 -1
114 1 4.5930098717601568e+00 7.1776479330427216e+00 9.9915672517256652e+01 0 0 -1
115 1 7.4267265959808348e+00 7.0506156985079462e+00 9.9935649301229162e+01 0 0 -1
116 1 6.7732303004754817e+00 8.3122198968874716e+00 9.9938944491854357e+01 0 0 -1
117 1 9.6062062997986786e+00 8.1873830450963574e+00 9.9955053749704120e+01 0 0 -1
118 1 8.9518787446014514e+00 9.4486024740060603e+00 9.9953916549637142e+01 0 0 -1
119 1 1.1785886589458176e+01 9.3247819894852100e+00 9.9962537645432832e+01 0 0 -1
120 1 1.1130264872986324e+01 1.0585201487374569e+01 9.9957205231194322e+01 0 0 -1
121 1 1.3966656952518067e+01 1.0461097591491557e+01 9.9960742574792533e+01 0 0 -1
122 1 1.3309625298069289e+01 1.1720521844538258e+01 9.9952056565892050e+01 0 0 -1
123 1 1.6148774692009066e+01 1.1595731898139203e+01 9.9955053267497362e+01 0 0 -1
124 1 1.5490637725905517e+01 1.2854235733864888e+01 9.9944335673292528e+01 0 0 -1
125 1 1.8332128170978319e+01 1.2728897091753382e+01 9.9949954618200820e+01 0 0 -1
126 1 1.7673374584445817e+01 1.3986742612992964e+01 9.9938943882085610e+01 0 0 -1
127 1 2.0516210917350264e+01 1.3861210263300048e+01 9.9948728528955769e+01 0 0 -1
128 1 1.9857337994854955e+01 1.5118847627566277e+01 9.9939028221902021e+01 0 0 -1
129 1 2.2700319687986394e+01 1.4993942501880657e+01 9.9952265778232643e+01 0 0 -1
130 1 2.2041851647670470e+01 1.6251884759825220e+01 9.9945017310809945e+01 0 0 -1
131 1 2.4883901298866082e+01 1.6128371590520466e+01 9.9958073614173657e+01 0 0 -1
132 1 2.4226356858327751e+01 1.7386996025948072e+01 9.9953956119365046e+01 0 0 -1
133 1 2.7066613491484574e+01 1.7264853107201336e+01 9.9961749206052332e+01 0 0 -1
134 1 2.6410382237939125e+01 1.8524371854340455e+01 9.9960634491117531e+01 0 0 -1
135 1 2.9248420579703030e+01 1.8403007784590329e+01 9.9958073292242617e+01 0 0 -1
136 1 2.8593624358561001e+01 1.9663398162201428e+01 9.9959080567533661e+01 0 0 -1
137 1 3.1430042753800862e+01 1.9541509686749528e+01 9.9942683262427352e+01 0 0 -1
138 1 3.0776410978239056e+01 2.0802538424131811e+01 9.9945016704613323e+01 0 0 -1
139 1 3.3612495253198851e+01 2.0678302385631177e+01 9.9916873636532188e+01 0 0 -1
140 1 3.2959540600227051e+01 2.1939672943885810e+01 9.9920093512130421e+01 0 0 -1
141 1 3.5796086627812954e+01 2.1812324182358644e+01 9.9888523158227315e+01 0 0 -1
142 1 3.5143445139585445e+01 2.3073800210017524e+01 9.9892250138532830e+01 0 0 -1
143 1 3.7980526638742973e+01 2.2944087715373108e+01 9.9865985364407052e+01 0 0 -1
144 1 2.3466645439359517e+01 1.9692492775000783e-01 9.9869952236580360e+01 0 1 -1
145 1 2.5651682836891592e+01 1.3273373973423059e+00 9.9857941854936982e+01 0 1 -1
146 1 2.7836770130954651e+01 2.4572206228134807e+00 9.9857959745393458e+01 -1 0 -1
147 1 2.9510668488337188e+00 2.3258880445308399e+00 9.9866044027978248e+01 0 0 -1
148 1 2.2986161638416731e+00 3.5874685095717385e+00 9.9869953044388026e+01 0 0 -1
149 1 5.1349862991800501e+00 3.4572297007930137e+00 9.9888852420107469e+01 0 0 -1
150 1 4.4823794313197816e+00 4.7188726797064646e+00 9.9892116446939042e+01 0 0 -1
151 1 7.3176784663717864e+00 4.5906493082860109e+00 9.9917816586596587e+01 0 0 -1
152 1 6.6647382319999622e+00 5.8522708042455900e+00 9.9919709162078604e+01 0 0 -1
153 1 9.4990262296534453e+00 5.7268403144796016e+00 9.9944483312355231e+01 0 0 -1
154 1 8.8453785148027748e+00 6.9881677766405677e+00 9.9944336360199699e+01 0 0 -1
155 1 1.1679887402850042e+01 6.8649308049109532e+00 9.9960742932562724e+01 0 0 -1
156 1 1.1024990909025044e+01 8.1255740412983588e+00 9.9958532616143557e+01 0 0 -1
157 1 1.3861396147133387e+01 8.0028806577999276e+00 9.9965297237342440e+01 0 0 -1
158 1 1.3204869694584964e+01 9.2625165603510169e+00 9.9961691950843218e+01 0 0 -1
159 1 1.6043950989020381e+01 9.1393739098066611e+00 9.9962537504724651e+01 0 0 -1
160 1 1.5385854261969634e+01 1.0397932867090951e+01 9.9958532308952215e+01 0 0 -1
161 1 1.8227404038349391e+01 1.0274112595566876e+01 9.9957311707115153e+01 0 0 -1
162 1 1.7568186530416888e+01 1.1531786377321607e+01 9.9953916227761823e+01 0 0 -1
163 1 2.0411402857068392e+01 1.1407242505908544e+01 9.9953587359650584e+01 0 0 -1
164 1 1.9751691775587290e+01 1.2664453344386256e+01 9.9951602274028261e+01 0 0 -1
165 1 2.2595324027835623e+01 1.2539742604542491e+01 9.9953943338650831e+01 0 0 -1
166 1 2.1935783650412901e+01 1.3797099764607843e+01 9.9953714963424773e+01 0 0 -1
167 1 2.4778477402779885e+01 1.3673064878107850e+01 9.9957736436043291e+01 0 0 -1
168 1 2.4119769395448436e+01 1.4931106198510749e+01 9.9959080868872945e+01 0 0 -1
169 1 2.6960475682875547e+01 1.4807948485632791e+01 9.9961749266323125e+01 0 0 -1
170 1 2.6303155272045263e+01 1.6066984221695982e+01 9.9964049205466182e+01 0 0 -1
171 1 2.9141286304530382e+01 1.5944482733398134e+01 9.9961749112295209e+01 0 0 -1
172 1 2.8485630611988999e+01 1.7204591438029066e+01 9.9964049035379404e+01 0 0 -1
173 1 3.1321358906740215e+01 1.7082173013314009e+01 9.9952588493286441e+01 0 0 -1
174 1 3.0667193519138813e+01 1.8343145747683124e+01 9.9953955573946430e+01 0 0 -1
175 1 3.3501823673708479e+01 1.8219273752795186e+01 9.9931685453290683e+01 0 0 -1
176 1 3.2848643642031313e+01 1.9480746550090107e+01 9.9931699423810329e+01 0 0 -1
177 1 3.5683730296170360e+01 1.9354053534083405e+01 9.9903703008731242e+01 0 0 -1
178 1 3.5031044789945604e+01 2.0615689387172292e+01 9.9902575665232064e+01 0 0 -1
179 1 3.7214678511855823e+01 2.1748025529487677e+01 9.9875824618800252e+01 0 0 -1
180 1 4.3697031092063519e+00 2.2608495089220222e+00 9.9875673074898515e+01 0 0 -1
181 1 7.2062631542753834e+00 2.1319081586308797e+00 9.9904052421304272e+01 0 0 -1
182 1 6.5535672047000251e+00 3.3934409219452508e+00 9.9902042793219110e+01 0 0 -1
183 1 9.3894335946877590e+00 3.2672749278980127e+00 9.9932445041548633e+01 0 0 -1
184 1 8.7362541183694606e+00 4.5286055766558038e+00 9.9930515953669058e+01 0 0 -1
185 1 1.1571853046971960e+01 4.4053855188764892e+00 9.9953717406244110e+01 0 0 -1
186 1 1.0917709837824880e+01 5.6662125729973010e+00 9.9952057134242750e+01 0 0 -1
187 1 1.3754350863843054e+01 5.5444860605811250e+00 9.9962537682908319e+01 0 0 -1
188 1 1.3098782659482808e+01 6.8044941407324622e+00 9.9961692077022192e+01 0 0 -1
189 1 1.5937644092464268e+01 6.6826135539602278e+00 9.9960742600892942e+01 0 0 -1
190 1 1.5280536064523481e+01 7.9416311732883820e+00 9.9961691919134410e+01 0 0 -1
191 1 1.8121689973794851e+01 7.8188255606445782e+00 9.9953716909083894e+01 0 0 -1
192 1 1.7463317149028299e+01 9.0769491075673461e+00 9.9957205187635665e+01 0 0 -1
193 1 2.0306080316534299e+01 8.9528872288625791e+00 9.9946766602181441e+01 0 0 -1
194 1 1.9646950310110569e+01 1.0210424162959653e+01 9.9952769267537505e+01 0 0 -1
195 1 2.2490311287839152e+01 1.0085407735503331e+01 9.9943961805305506e+01 0 0 -1
196 1 2.1831021445736035e+01 1.1342855615463124e+01 9.9951873137675378e+01 0 0 -1
197 1 2.4673728431312004e+01 1.1217774791980720e+01 9.9946573163154611e+01 0 0 -1
198 1 2.4014858061096248e+01 1.2475691255839987e+01 9.9955296281857215e+01 0 0 -1
199 1 2.6855708084175838e+01 1.2351104997378494e+01 9.9952589028041572e+01 0 0 -1
200 1 2.6197816164627657e+01 1.3609876129889360e+01 9.9960634565406934e+01 0 0 -1
201 1 2.9036053610999801e+01 1.3485904936912137e+01 9.9958073608479822e+01 0 0 -1
202 1 2.8379589665018617e+01 1.4745708647085969e+01 9.9964049169051933e+01 0 0 -1
203 1 3.1215123459574244e+01 1.4622258489778691e+01 9.9957736210627388e+01 0 0 -1
204 1 3.0560177148715308e+01 1.5883036309170459e+01 9.9960634235077563e+01 0 0 -1
205 1 3.3393841487122948e+01 1.5759188176578206e+01 9.9946572604041208e+01 0 0 -1
206 1 3.2740059792851127e+01 1.7020610379205152e+01 9.9945798808827249e+01 0 0 -1
207 1 3.4920434536334035e+01 1.8156503103123317e+01 9.9920458424299241e+01 0 0 -1
208 1 1.0808014090621755e+01 3.2074460329203234e+00 9.9943729126120857e+01 0 0 -1
209 1 1.3645336975311970e+01 3.0861908575423138e+00 9.9957311913814465e+01 0 0 -1
210 1 1.2990606412271330e+01 4.3464912610906730e+00 9.9957205457223836e+01 0 0 -1
211 1 1.5829207462806023e+01 4.2255269764987737e+00 9.9955053291544857e+01 0 0 -1
212 1 1.5173343257867966e+01 5.4851349566978218e+00 9.9958532366951388e+01 0 0 -1
213 1 1.8013690005822134e+01 5.3629775232824084e+00 9.9944482554425164e+01 0 0 -1
214 1 1.7356853318126518e+01 6.6219074114046999e+00 9.9952056612224268e+01 0 0 -1
215 1 2.0198532406958936e+01 6.4978500375700152e+00 9.9932444262194892e+01 0 0 -1
216 1 1.9541055476709715e+01 7.7562912200573955e+00 9.9943728557700510e+01 0 0 -1
217 1 2.2383269480475665e+01 7.6305271800588610e+00 9.9924847099059107e+01 0 0 -1
218 1 2.1725540621220638e+01 8.8887865897426774e+00 9.9938682102097843e+01 0 0 -1
219 1 2.4567385112470216e+01 8.7622420625835957e+00 9.9924705478765148e+01 0 0 -1
220 1 2.3909762663970280e+01 1.0020715645586373e+01 9.9939614700663952e+01 0 0 -1
221 1 2.6750233931636885e+01 9.8942166600126829e+00 9.9931686338619670e+01 0 0 -1
222 1 2.6093042940844409e+01 1.1153255237138328e+01 9.9945799526206343e+01 0 0 -1
223 1 2.8931214157775358e+01 1.1027313667324499e+01 9.9942684061836914e+01 0 0 -1
224 1 2.8274825186682534e+01 1.2287142485357448e+01 9.9953956164069425e+01 0 0 -1
225 1 3.1110288802951963e+01 1.2162082244910545e+01 9.9952265860957283e+01 0 0 -1
226 1 3.0454981795746843e+01 1.3422779926732192e+01 9.9959080802998926e+01 0 0 -1
227 1 3.2633889095403376e+01 1.4559631461397796e+01 9.9955295923431962e+01 0 0 -1
228 1 1.5064123176588346e+01 3.0282529890847165e+00 9.9953916240398513e+01 0 0 -1
229 1 1.7903416745685430e+01 2.9064257306019061e+00 9.9935648366260452e+01 0 0 -1
230 1 1.7248172241254679e+01 4.1662382797296376e+00 9.9944335628718477e+01 0 0 -1
231 1 2.0088334176616822e+01 4.0419702841759788e+00 9.9917815575226882e+01 0 0 -1
232 1 1.9432777779712207e+01 5.3015146980744747e+00 9.9930515092738233e+01 0 0 -1
233 1 2.2273374093272814e+01 5.1748522067346681e+00 9.9904051613356302e+01 0 0 -1
234 1 2.1617700630971601e+01 6.4342734307913263e+00 9.9919481457299085e+01 0 0 -1
235 1 2.4458108373872324e+01 6.3062156255255895e+00 9.9898957323300536e+01 0 0 -1
236 1 2.3802485114730398e+01 7.5657197201798017e+00 9.9915774058761514e+01 0 0 -1
237 1 2.6642028886274886e+01 7.4372401232569834e+00 9.9903703960668992e+01 0 0 -1
238 1 2.5986567649422881e+01 8.6970488643235271e+00 9.9920459354528717e+01 0 0 -1
239 1 2.8824479405290962e+01 8.5688579133345950e+00 9.9916874722236031e+01 0 0 -1
240 1 2.8169291427584341e+01 9.8291507469030588e+00 9.9931700412203355e+01 0 0 -1
241 1 3.0350112955887528e+01 1.0962861023799846e+01 9.9945017491501375e+01 0 0 -1
242 1 1.9322208046249344e+01 2.8456967120563745e+00 9.9919708104630701e+01 0 0 -1
243 1 2.2161250441474500e+01 2.7184130548142371e+00 9.9888851474491759e+01 0 0 -1
244 1 2.1507202676757355e+01 3.9788345457651331e+00 9.9902041857582375e+01 0 0 -1
245 1 2.4346294447747216e+01 3.8496830879720862e+00 9.9877691536787339e+01 0 0 -1
246 1 2.3692314888690049e+01 5.1101396604256424e+00 9.9892091705297034e+01 0 0 -1
247 1 2.6530971182384231e+01 4.9801852750929285e+00 9.9877596202875978e+01 0 0 -1
248 1 2.5877089002721860e+01 6.2407922114794063e+00 9.9892352924755073e+01 0 0 -1
249 1 2.8714775548304193e+01 6.1108013169572937e+00 9.9888524179240491e+01 0 0 -1
250 1 2.8060980331978094e+01 7.3716643919617049e+00 9.9902576738161130e+01 0 0 -1
251 1 2.3579987676099890e+01 2.6538483332566769e+00 9.9875672338944611e+01 0 0 -1
252 1 2.6418037011848181e+01 2.5230663008772432e+00 9.9859988713039485e+01 0 0 -1
253 1 2.5765100976344556e+01 3.7842184751911501e+00 9.9869961431279719e+01 0 0 -1
254 1 2.7949795459019313e+01 4.9144139667118809e+00 9.9875825459297502e+01 0 0 -1
255 2 4.0165489111129340e+01 2.3942793217998851e+01 3.4461709139836776e+00 -1 0 0
256 2 2.8375106433450757e+01 1.2615568258681942e+00 3.4461706239966592e+00 -1 1 0
257 2 3.8207686812252589e+01 2.0158962957462396e+01 3.4223089323904929e+00 -1 0 0
258 2 1.2556637412677334e+01 2.1485579768871268e+01 3.4400116237747773e+00 0 0 0
259 2 3.9513075030079925e+01 2.2681308623818211e+01 3.4420583174667105e+00 -1 0 0
260 2 1.4627770866980944e+01 2.2812946684508876e+01 3.4461707954089844e+00 0 0 0
261 2 2.7722789277520057e+01 3.9424740046868489e-06 3.4482549668221973e+00 -1 1 0
262 2 2.8374148339846115e+00 1.3158599269762253e-01 3.4400110569152744e+00 0 1 0
263 2 2.0710242357182640e+00 1.3273221020597570e+00 3.4420401374232892e+00 0 1 0
264 2 4.9088750762747795e+00 1.4579494049546100e+00 3.4224034717240470e+00 0 1 0
265 2 3.4167473154381355e+01 1.5055758763995257e+01 3.3532337195774287e+00 -1 0 0
266 2 3.6244662182566422e+01 1.6378118830396716e+01 3.3751534880952963e+00 -1 0 0
267 2 3.5479093242796807e+01 1.7574372538673199e+01 3.3805190796305666e+00 -1 0 0
268 2 1.0596709076331996e+01 1.7702430414844528e+01 3.4010433559632194e+00 0 0 0
269 2 3.7553707365928261e+01 1.8898506330282640e+01 3.4079088704338822e+00 -1 0 0
270 2 1.2669571762056833e+01 1.9028460779731073e+01 3.4224044186547551e+00 0 0 0
271 2 1.1903701470028164e+01 2.0224427533301476e+01 3.4300390555530900e+00 0 0 0
272 2 1.4741292119947239e+01 2.0355507142380731e+01 3.4340144176906189e+00 0 0 0
273 2 1.3975370529720355e+01 2.1551425414155265e+01 3.4420405935376235e+00 0 0 0
274 2 1.6812459096966581e+01 2.1682758040964799e+01 3.4339562977372049e+00 0 0 0
275 2 1.6046455634437873e+01 2.2878681720760646e+01 3.4420579166104637e+00 0 0 0
276 2 1.8883565137949297e+01 2.3009355092029381e+01 3.4223080340006611e+00 0 0 0
277 2 4.2560726431981557e+00 1.9670287863599725e-01 3.4300382358652723e+00 0 1 0
278 2 7.0936824476063576e+00 3.2581267776416345e-01 3.4010422042152175e+00 0 1 0
279 2 6.3275337920099410e+00 1.5219742731423946e+00 3.4076466747462777e+00 0 1 0
280 2 9.1660252428635722e+00 1.6484623591323213e+00 3.3752941075988496e+00 0 1 0
281 2 3.2193521270775761e+01 1.1279748898146496e+01 3.3500450134882662e+00 -1 0 0
282 2 3.4272795881469420e+01 1.2601403479370656e+01 3.3464126748144354e+00 -1 0 0
283 2 3.3508343264309723e+01 1.3798221778021968e+01 3.3472308621767493e+00 -1 0 0
284 2 8.6289123458717452e+00 1.3923238252391391e+01 3.3560386221056122e+00 0 0 0
285 2 3.5586933451513673e+01 1.5119859352666435e+01 3.3613183781882001e+00 -1 0 0
286 2 1.0705986043020733e+01 1.5246403955316246e+01 3.3752952167205428e+00 0 0 0
287 2 9.9410859478286007e+00 1.6442926251339159e+01 3.3842266340590537e+00 0 0 0
288 2 1.2780629688014791e+01 1.6571405930360225e+01 3.3962968220819074e+00 0 0 0
289 2 1.2015689703881055e+01 1.7767853797457931e+01 3.4076478000214760e+00 0 0 0
290 2 1.4853376229214138e+01 1.7897844765707443e+01 3.4114765489077854e+00 0 0 0
291 2 1.4088396048501021e+01 1.9094232057204113e+01 3.4241751723517377e+00 0 0 0
292 2 1.6925098449439822e+01 1.9224817069535259e+01 3.4167374057556961e+00 0 0 0
293 2 1.6160008494287084e+01 2.0421177523484165e+01 3.4300474379618535e+00 0 0 0
294 2 1.8996378652918679e+01 2.0551416387085503e+01 3.4111480202798514e+00 0 0 0
295 2 1.8231095357825176e+01 2.1747796543770118e+01 3.4243272339767352e+00 0 0 0
296 2 2.1067655418538394e+01 2.1876737938826537e+01 3.3959478432673502e+00 0 0 0
297 2 2.0302142336003442e+01 2.3073220446661086e+01 3.4079078044325062e+00 0 0 0
298 2 2.3139384529505875e+01 2.3199747626930350e+01 3.3751524187443525e+00 0 0 0
299 2 8.5122565910699048e+00 3.8777829187163726e-01 3.3842254717042870e+00 0 1 0
300 2 1.1350457240775087e+01 5.1124643436112338e-01 3.3560378978128163e+00 0 1 0
301 2 1.0584706557196428e+01 1.7081813665061214e+00 3.3603849721702472e+00 0 1 0
302 2 1.3423467089501845e+01 1.8293576197461010e+00 3.3460566293254863e+00 0 1 0
303 2 3.0223180882470484e+01 7.5012903952889731e+00 3.3912294535861682e+00 -1 0 0
304 2 3.2299337714797474e+01 8.8251921881065947e+00 3.3684616825346554e+00 -1 0 0
305 2 3.1534767732924490e+01 1.0021903357681047e+01 3.3610555624954395e+00 -1 0 0
306 2 6.6548122062728821e+00 1.0147435705530722e+01 3.3512711804861581e+00 0 0 0
307 2 3.3613084866518143e+01 1.1344192596768114e+01 3.3483975284178999e+00 -1 0 0
308 2 8.7339252703326800e+00 1.1468903370706421e+01 3.3460567707821043e+00 0 0 0
309 2 7.9696226110611130e+00 1.2665790331014707e+01 3.3481270816459299e+00 0 0 0
310 2 1.0812329578205459e+01 1.2790871220628507e+01 3.3534273086371282e+00 0 0 0
311 2 1.0048363728122013e+01 1.3987930316072354e+01 3.3603858751174762e+00 0 0 0
312 2 1.2888834956432468e+01 1.4114429390394649e+01 3.3683143702137501e+00 0 0 0
313 2 1.2125168577270923e+01 1.5311597129724927e+01 3.3795414230488334e+00 0 0 0
314 2 1.4963080310371286e+01 1.5439788173254602e+01 3.3831260642464880e+00 0 0 0
315 2 1.4199581122756072e+01 1.6636981634658859e+01 3.3974240680798946e+00 0 0 0
316 2 1.7035681636956472e+01 1.6766200571441882e+01 3.3916742840029643e+00 0 0 0
317 2 1.6272167255788354e+01 1.7963378671744977e+01 3.4077494758009546e+00 0 0 0
318 2 1.9107501530884967e+01 1.8092600330547121e+01 3.3912299811768376e+00 0 0 0
319 2 1.8343771873297229e+01 1.9289773376120166e+01 3.4078841236815003e+00 0 0 0
320 2 2.1179070924294081e+01 1.9417996810348011e+01 3.3821838721851778e+00 0 0 0
321 2 2.0414959542579933e+01 2.0615205133670720e+01 3.3979576000961256e+00 0 0 0
322 2 2.3250825976561430e+01 2.0741371180287896e+01 3.3675552429110334e+00 0 0 0
323 2 2.2486182920811011e+01 2.1938618644095545e+01 3.3805180255529832e+00 0 0 0
324 2 2.5323176494220043e+01 2.2062029032304981e+01 3.3532330747553045e+00 0 0 0
325 2 2.4557933575783718e+01 2.3259267401366760e+01 3.3613175237087276e+00 0 0 0
326 2 2.7396049147647190e+01 2.3380418698608917e+01 3.3464125799026618e+00 0 0 0
327 2 1.2769083945532847e+01 5.6900861049269236e-01 3.3481267363950602e+00 0 1 0
328 2 1.5607448214414280e+01 6.8952667933190459e-01 3.3512716926966104e+00 0 1 0
329 2 1.4842140519733864e+01 1.8868574856351648e+00 3.3462851916167988e+00 0 1 0
330 2 1.7679607761085709e+01 2.0086259929969565e+00 3.3657744797696112e+00 0 1 0
331 2 2.8261534361469426e+01 3.7186466249517713e+00 3.4339560830029559e+00 -1 0 0
332 2 3.0333853976492854e+01 5.0451655703804690e+00 3.4167368032593188e+00 -1 0 0
333 2 2.9568263427310988e+01 6.2412945988043251e+00 3.4078836452837389e+00 -1 0 0
334 2 4.6849948869018823e+00 6.3702415166790658e+00 3.3916734603569241e+00 0 0 0
335 2 3.1642309908043941e+01 7.5664910501643075e+00 3.3843274754124226e+00 -1 0 0
336 2 6.7611058964986661e+00 7.6933431868025544e+00 3.3657735622315035e+00 0 0 0
337 2 5.9959393277474229e+00 8.8897983426504705e+00 3.3609713086091264e+00 0 0 0
338 2 8.8389210403331635e+00 9.0147034874128291e+00 3.3477340348593092e+00 0 0 0
339 2 8.0743849609025933e+00 1.0211546183224124e+01 3.3462849220117539e+00 0 0 0
340 2 1.0917078698642754e+01 1.0335581122430691e+01 3.3422637037682215e+00 0 0 0
341 2 1.0153459294861989e+01 1.1532954709986825e+01 3.3447039848934055e+00 0 0 0
342 2 1.2994309313324759e+01 1.1657541048000400e+01 3.3474113869162823e+00 0 0 0
343 2 1.2231644084037637e+01 1.2855390765907009e+01 3.3542010477677300e+00 0 0 0
344 2 1.5069815284584813e+01 1.2981332428496142e+01 3.3573165274822481e+00 0 0 0
345 2 1.4307892457623758e+01 1.4179495291385363e+01 3.3683003324174137e+00 0 0 0
346 2 1.7143465921219743e+01 1.4306684826720822e+01 3.3657743201953014e+00 0 0 0
347 2 1.6381936575017605e+01 1.5504998133609973e+01 3.3799061260708205e+00 0 0 0
348 2 1.9215955803477335e+01 1.5632644832482642e+01 3.3684622553206092e+00 0 0 0
349 2 1.8454402521585408e+01 1.6830998149167581e+01 3.3843281640984673e+00 0 0 0
350 2 2.1288119281880022e+01 1.6958030454711750e+01 3.3643511743525845e+00 0 0 0
351 2 2.0526130787165151e+01 1.8156375289130434e+01 3.3802913763545619e+00 0 0 0
352 2 2.3360418813407470e+01 1.8281805836263814e+01 3.3555170251665296e+00 0 0 0
353 2 2.2597646582972462e+01 1.9480040502671159e+01 3.3694844104659749e+00 0 0 0
354 2 2.5433245532234039e+01 1.9603260600240436e+01 3.3462828022868116e+00 0 0 0
355 2 2.4669406457581040e+01 2.0801200028965020e+01 3.3562710700984995e+00 0 0 0
356 2 2.7506729366563199e+01 2.0922455234508980e+01 3.3426882195182221e+00 0 0 0
357 2 2.6741800429212656e+01 2.2119974164609573e+01 3.3472305841874714e+00 0 0 0
358 2 2.9580272931960970e+01 2.2240541316669507e+01 3.3500455655628194e+00 0 0 0
359 2 2.8814681208866816e+01 2.3437697580637018e+01 3.3483978562445773e+00 0 0 0
360 2 3.1653073130341340e+01 2.3559459426924082e+01 3.3684626958857287e+00 0 0 0
361 2 1.7026030562057155e+01 7.4774471502867612e-01 3.3609721590103572e+00 0 1 0
362 2 1.9863502959317689e+01 8.7221203370010469e-01 3.3916745977949025e+00 0 1 0
363 2 1.9098142212286387e+01 2.0689731187894935e+00 3.3799062616022382e+00 0 1 0