
 222 atoms
 6 atom types

 0.0000000000 18.9538879983 xlo xhi
 0.0000000000 16.4145490637 ylo yhi
 0.0000000000 100.0000000000 zlo zhi
 9.4769430349 0.0000000000  0.0000000000 xy xz yz

 Masses 
 
1 95.9400000000 
2 32.0660000000 
3 32.0660000000 
4 95.9400000000 
5 32.0660000000 
6 32.0660000000 

 Atoms 
 
1 2 7.6840085913 16.5624283386 4.3444080009
2 3 7.6840085913 16.5624283386 7.4346400002
3 2 10.5014782759 17.8933377767 4.3444080009
4 3 10.5014782759 17.8933377767 7.4346400002
5 2 4.6104052935 12.1260635901 4.3444080009
6 3 4.6104052935 12.1260635901 7.4346400002
7 2 7.4278749762 13.4569730281 4.3444080009
8 3 7.4278749762 13.4569730281 7.4346400002
9 1 6.6594738270 15.0836401165 5.8895240006
10 2 10.2453446607 14.7878824661 4.3444080009
11 3 10.2453446607 14.7878824661 7.4346400002
12 1 9.4769435097 16.4145495545 5.8895240006
13 2 13.0628143434 16.1187919042 4.3444080009
14 3 13.0628143434 16.1187919042 7.4346400002
15 1 12.2944141912 17.7454589105 5.8895240006
16 2 15.8802840279 17.4497013422 4.3444080009
17 3 15.8802840279 17.4497013422 7.4346400002
18 1 15.1118838739 19.0763683485 5.8895240006
19 2 18.6977547076 18.7806106981 4.3444080009
20 3 18.6977547076 18.7806106981 7.4346400002
21 2 1.5368019947 7.6896988432 4.3444080009
22 3 1.5368019947 7.6896988432 7.4346400002
23 2 4.3542716792 9.0206082812 4.3444080009
24 3 4.3542716792 9.0206082812 7.4346400002
25 1 3.5858705282 10.6472753696 5.8895240006
26 2 7.1717413619 10.3515177192 4.3444080009
27 3 7.1717413619 10.3515177192 7.4346400002
28 1 6.4033402128 11.9781848076 5.8895240006
29 2 9.9892110465 11.6824271573 4.3444080009
30 3 9.9892110465 11.6824271573 7.4346400002
31 1 9.2208098955 13.3090942456 5.8895240006
32 2 12.8066807291 13.0133365953 4.3444080009
33 3 12.8066807291 13.0133365953 7.4346400002
34 1 12.0382805760 14.6400035999 5.8895240006
35 2 15.6241504137 14.3442460333 4.3444080009
36 3 15.6241504137 14.3442460333 7.4346400002
37 1 14.8557502587 15.9709130380 5.8895240006
38 2 18.4416210933 15.6751553893 4.3444080009
39 3 18.4416210933 15.6751553893 7.4346400002
40 1 17.6732199442 17.3018224776 5.8895240006
41 2 21.2590907779 17.0060648273 4.3444080009
42 3 21.2590907779 17.0060648273 7.4346400002
43 1 20.4906896269 18.6327319156 5.8895240006
44 2 24.0765604606 18.3369742653 4.3444080009
45 3 24.0765604606 18.3369742653 7.4346400002
46 2 1.2806683795 4.5842435327 4.3444080009
47 3 1.2806683795 4.5842435327 7.4346400002
48 1 0.5122672304 6.2109106210 5.8895240006
49 2 4.0981380641 5.9151529707 4.3444080009
50 3 4.0981380641 5.9151529707 7.4346400002
51 1 3.3297369130 7.5418200591 5.8895240006
52 2 6.9156077467 7.2460624087 4.3444080009
53 3 6.9156077467 7.2460624087 7.4346400002
54 1 6.1472065976 8.8727294971 5.8895240006
55 2 9.7330774313 8.5769718467 4.3444080009
56 3 9.7330774313 8.5769718467 7.4346400002
57 1 8.9646762803 10.2036389351 5.8895240006
58 2 12.5505471139 9.9078812848 4.3444080009
59 3 12.5505471139 9.9078812848 7.4346400002
60 1 11.7821469618 11.5345482911 5.8895240006
61 2 15.3680167985 11.2387907228 4.3444080009
62 3 15.3680167985 11.2387907228 7.4346400002
63 1 14.5996166445 12.8654577291 5.8895240006
64 2 18.1854874781 12.5697000787 4.3444080009
65 3 18.1854874781 12.5697000787 7.4346400002
66 1 17.4170863290 14.1963671671 5.8895240006
67 2 21.0029571627 13.9006095168 4.3444080009
68 3 21.0029571627 13.9006095168 7.4346400002
69 1 20.2345560117 15.5272766051 5.8895240006
70 2 23.8204268454 15.2315189548 4.3444080009
71 3 23.8204268454 15.2315189548 7.4346400002
72 1 23.0520256962 16.8581860431 5.8895240006
73 1 25.8694953789 18.1890954812 5.8895240006
74 1 0.2561336152 3.1054553105 5.8895240006
75 2 3.8420044489 2.8096976602 4.3444080009
76 3 3.8420044489 2.8096976602 7.4346400002
77 1 3.0736032979 4.4363647485 5.8895240006
78 2 6.6594741315 4.1406070982 4.3444080009
79 3 6.6594741315 4.1406070982 7.4346400002
80 1 5.8910729824 5.7672741866 5.8895240006
81 2 9.4769438161 5.4715165362 4.3444080009
82 3 9.4769438161 5.4715165362 7.4346400002
83 1 8.7085426670 7.0981836246 5.8895240006
84 2 12.2944135007 6.8024259742 4.3444080009
85 3 12.2944135007 6.8024259742 7.4346400002
86 1 11.5260133466 8.4290929805 5.8895240006
87 2 15.1118831833 8.1333354123 4.3444080009
88 3 15.1118831833 8.1333354123 7.4346400002
89 1 14.3434830293 9.7600024186 5.8895240006
90 2 17.9293538630 9.4642447682 4.3444080009
91 3 17.9293538630 9.4642447682 7.4346400002
92 1 17.1609527138 11.0909118566 5.8895240006
93 2 20.7468235475 10.7951542062 4.3444080009
94 3 20.7468235475 10.7951542062 7.4346400002
95 1 19.9784223965 12.4218212946 5.8895240006
96 1 22.7958920811 13.7527307326 5.8895240006
97 1 8.4524090518 3.9927283141 5.8895240006
98 2 12.0382798855 3.6969706637 4.3444080009
99 3 12.0382798855 3.6969706637 7.4346400002
100 1 11.2698797314 5.3236376700 5.8895240006
101 2 14.8557495681 5.0278801018 4.3444080009
102 3 14.8557495681 5.0278801018 7.4346400002
103 1 14.0873494141 6.6545471080 5.8895240006
104 2 17.6732202478 6.3587894577 4.3444080009
105 3 17.6732202478 6.3587894577 7.4346400002
106 1 16.9048190986 7.9854565461 5.8895240006
107 1 19.7222887832 9.3163659841 5.8895240006
108 1 13.8312158008 3.5490917975 5.8895240006
109 2 17.4170866345 3.2533341472 4.3444080009
110 3 17.4170866345 3.2533341472 7.4346400002
111 1 16.6486854835 4.8800012355 5.8895240006
112 5 7.6840036267 16.2666728632 10.2444079994
113 6 7.6840036267 16.2666728632 13.3346399987
114 5 10.2453392942 18.0412197272 10.2444079994
115 6 10.2453392942 18.0412197272 13.3346399987
116 5 2.8174663143 9.6121246866 10.2444079994
117 6 2.8174663143 9.6121246866 13.3346399987
118 5 5.3788019828 11.3866715522 10.2444079994
119 6 5.3788019828 11.3866715522 13.3346399987
120 4 4.3542674371 12.8654592261 11.7895239990
121 5 7.9401375679 13.1612174198 10.2444079994
122 6 7.9401375679 13.1612174198 13.3346399987
123 4 6.9156031056 14.6400060917 11.7895239990
124 5 10.5014732354 14.9357642837 10.2444079994
125 6 10.5014732354 14.9357642837 13.3346399987
126 4 9.4769387731 16.4145529556 11.7895239990
127 5 13.0628089039 16.7103111493 10.2444079994
128 6 13.0628089039 16.7103111493 13.3346399987
129 4 12.0382743611 18.1890988248 11.7895239990
130 5 15.6241445715 18.4848580132 10.2444079994
131 6 15.6241445715 18.4848580132 13.3346399987
132 5 0.5122655830 4.7321222971 10.2444079994
133 6 0.5122655830 4.7321222971 13.3346399987
134 5 3.0736012505 6.5066691610 10.2444079994
135 6 3.0736012505 6.5066691610 13.3346399987
136 4 2.0490667077 7.9854568366 11.7895239990
137 5 5.6349369190 8.2812160266 10.2444079994
138 6 5.6349369190 8.2812160266 13.3346399987
139 4 4.6104023752 9.7600037005 11.7895239990
140 5 8.1962725885 10.0557628906 10.2444079994
141 6 8.1962725885 10.0557628906 13.3346399987
142 4 7.1717380437 11.5345505661 11.7895239990
143 5 10.7576082570 11.8303097561 10.2444079994
144 6 10.7576082570 11.8303097561 13.3346399987
145 4 9.7330737113 13.3090974301 11.7895239990
146 5 13.3189438421 13.6048556237 10.2444079994
147 6 13.3189438421 13.6048556237 13.3346399987
148 4 12.2944093798 15.0836442956 11.7895239990
149 5 15.8802795096 15.3794024876 10.2444079994
150 6 15.8802795096 15.3794024876 13.3346399987
151 4 14.8557449668 16.8581901632 11.7895239990
152 5 18.4416151781 17.1539493532 10.2444079994
153 6 18.4416151781 17.1539493532 13.3346399987
154 4 17.4170806343 18.6327370271 11.7895239990
155 5 21.0029508457 18.9284962172 10.2444079994
156 6 21.0029508457 18.9284962172 13.3346399987
157 4 -0.2561349382 3.1054555256 11.7895239990
158 5 3.3297361887 3.4012136355 10.2444079994
159 6 3.3297361887 3.4012136355 13.3346399987
160 4 2.3052007294 4.8800023895 11.7895239990
161 5 5.8910718572 5.1757605011 10.2444079994
162 6 5.8910718572 5.1757605011 13.3346399987
163 4 4.8665363173 6.6545482587 11.7895239990
164 5 8.4524075247 6.9503073650 10.2444079994
165 6 8.4524075247 6.9503073650 13.3346399987
166 4 7.4278719849 8.4290951226 11.7895239990
167 5 11.0137431932 8.7248542306 10.2444079994
168 6 11.0137431932 8.7248542306 13.3346399987
169 4 9.9892076525 10.2036419866 11.7895239990
170 5 13.5750788608 10.4994010945 10.2444079994
171 6 13.5750788608 10.4994010945 13.3346399987
172 4 12.5505433210 11.9781888522 11.7895239990
173 5 16.1364145293 12.2739479601 10.2444079994
174 6 16.1364145293 12.2739479601 13.3346399987
175 4 15.1118789885 13.7527357161 11.7895239990
176 5 18.6977501163 14.0484938277 10.2444079994
177 6 18.6977501163 14.0484938277 13.3346399987
178 4 17.6732146570 15.5272825817 11.7895239990
179 5 21.2590857839 15.8230406916 10.2444079994
180 6 21.2590857839 15.8230406916 13.3346399987
181 4 20.2345502440 17.3018284492 11.7895239990
182 5 23.8204214524 17.5975875572 10.2444079994
183 6 23.8204214524 17.5975875572 13.3346399987
184 4 22.7958859116 19.0763753132 11.7895239990
185 4 5.1226713361 3.5490937295 11.7895239990
186 5 8.7085414659 3.8448519215 10.2444079994
187 6 8.7085414659 3.8448519215 13.3346399987
188 4 7.6840070036 5.3236405934 11.7895239990
189 5 11.2698771344 5.6193987871 10.2444079994
190 6 11.2698771344 5.6193987871 13.3346399987
191 4 10.2453425916 7.0981864627 11.7895239990
192 5 13.8312128020 7.3939456510 10.2444079994
193 6 13.8312128020 7.3939456510 13.3346399987
194 4 12.8066782591 8.8727333266 11.7895239990
195 5 16.3925484705 9.1684925166 10.2444079994
196 6 16.3925484705 9.1684925166 13.3346399987
197 4 15.3680139267 10.6472801905 11.7895239990
198 5 18.9538841380 10.9430393806 10.2444079994
199 6 18.9538841380 10.9430393806 13.3346399987
200 4 17.9293495952 12.4218270561 11.7895239990
201 5 21.5152197250 12.7175852481 10.2444079994
202 6 21.5152197250 12.7175852481 13.3346399987
203 4 20.4906852627 14.1963739200 11.7895239990
204 5 24.0765553935 14.4921321137 10.2444079994
205 6 24.0765553935 14.4921321137 13.3346399987
206 4 23.0520209312 15.9709207856 11.7895239990
207 4 25.6133565163 17.7454666532 11.7895239990
208 4 10.5014776103 3.9927319335 11.7895239990
209 5 14.0873477401 4.2884901255 10.2444079994
210 6 14.0873477401 4.2884901255 13.3346399987
211 4 13.0628131954 5.7672778010 11.7895239990
212 5 16.6486834086 6.0630369911 10.2444079994
213 6 16.6486834086 6.0630369911 13.3346399987
214 4 15.6241488629 7.5418246650 11.7895239990
215 5 19.2100190762 7.8375838550 10.2444079994
216 6 19.2100190762 7.8375838550 13.3346399987
217 4 18.1854845333 9.3163715306 11.7895239990
218 4 20.7468202009 11.0909183945 11.7895239990
219 5 16.9048183468 2.9575814655 10.2444079994
220 6 16.9048183468 2.9575814655 13.3346399987
221 4 15.8802828875 4.4363702195 11.7895239990
222 4 18.4416184726 6.2109160871 11.7895239990
