LAMMPS data file via write_data, version 30 Mar 2018, timestep = 858

222 atoms
6 atom types

0.0000000000000000e+00 1.8953887998300001e+01 xlo xhi
0.0000000000000000e+00 1.6414549063700001e+01 ylo yhi
0.0000000000000000e+00 1.0000000000000000e+02 zlo zhi
9.4769430348999997e+00 0.0000000000000000e+00 0.0000000000000000e+00 xy xz yz

Masses

1 95.94
2 32.066
3 32.066
4 95.94
5 32.066
6 32.066

Atoms # atomic

1 2 1.7148911111718878e+01 1.6288315867211448e-01 4.0527849161568055e+00 -1 1 0
2 3 1.7173586924083594e+01 1.6610306054421198e-01 7.1663476671694539e+00 -1 1 0
3 2 1.0435504736162613e+00 1.4817157227812645e+00 4.0527854003432031e+00 0 1 0
4 3 1.0340009889615582e+00 1.4587351923100997e+00 7.1663481802137285e+00 0 1 0
5 2 2.3532428984314297e+01 1.2132577883896220e+01 4.1207851184732087e+00 -1 0 0
6 3 2.3558053098808138e+01 1.2158951086016659e+01 7.2389737445775122e+00 -1 0 0
7 2 2.6349597107968560e+01 1.3453959567058364e+01 4.0746701952481050e+00 -1 0 0
8 3 2.6365376825770035e+01 1.3489237047333690e+01 7.1896988090100198e+00 -1 0 0
9 1 2.5602727805189829e+01 1.5104776679804651e+01 5.6245993859875894e+00 -1 0 0
10 2 1.0238372477127417e+01 1.4769951234836109e+01 4.0527850572775153e+00 0 0 0
11 3 1.0223245368070442e+01 1.4789710901813436e+01 7.1663478154161329e+00 0 0 0
12 1 8.9761666943209649e-07 1.4900196125603875e-07 5.5999807621314082e+00 0 1 0
13 2 1.3081507311144771e+01 1.6092442025083209e+01 4.0746709926696916e+00 0 0 0
14 3 1.3043066038700559e+01 1.6088468737436109e+01 7.1896996623083034e+00 0 0 0
15 1 2.8302385958028946e+00 1.3103659234009368e+00 5.6239733809040668e+00 0 1 0
16 2 6.4241806378649393e+00 1.0158198670008145e+00 4.1170554419190584e+00 0 1 0
17 3 6.3944680313903701e+00 1.0022162547155378e+00 7.2355645827441801e+00 0 1 0
18 1 5.6505367795319268e+00 2.6399890483139914e+00 5.6724745984158611e+00 0 1 0
19 2 9.2253490503420892e+00 2.3664966977494206e+00 4.1405530558446921e+00 0 1 0
20 3 9.2280619977165248e+00 2.3587850644713884e+00 7.2612278301724276e+00 0 1 0
21 2 2.0507527132527546e+01 7.7056285073836932e+00 4.1379164133108102e+00 -1 0 0
22 3 2.0509239999963405e+01 7.6749842105322958e+00 7.2572251158750243e+00 -1 0 0
23 2 2.3300421363702938e+01 9.0262682022249887e+00 4.1401745990741965e+00 -1 0 0
24 3 2.3305763443211198e+01 9.0261791939855964e+00 7.2601735433162107e+00 -1 0 0
25 1 2.2533931987607829e+01 1.0656409083202512e+01 5.7007535383311030e+00 -1 0 0
26 2 7.1445791896483275e+00 1.0343136337282120e+01 4.1170547046138291e+00 0 0 0
27 3 7.1476545389479673e+00 1.0375670459820101e+01 7.2355637849487344e+00 0 0 0
28 1 2.5335708595505885e+01 1.1990370359295111e+01 5.6609350962822385e+00 -1 0 0
29 2 9.9675281540759961e+00 1.1657322361894810e+01 4.0915792925000423e+00 0 0 0
30 3 9.9513344078244934e+00 1.1698901905986006e+01 7.2079480982598145e+00 0 0 0
31 1 9.1966350084756758e+00 1.3308308491787047e+01 5.6239726227283038e+00 0 0 0
32 2 1.2806445689369816e+01 1.2977557852818286e+01 4.0933988784321249e+00 0 0 0
33 3 1.2768267811250627e+01 1.3004101214951948e+01 7.2095427397664462e+00 0 0 0
34 1 1.2025292426810331e+01 1.4620225526127467e+01 5.6245999714768233e+00 0 0 0
35 2 1.5634441294784864e+01 1.4313393954285813e+01 4.1207858048565091e+00 0 0 0
36 3 1.5598789772563126e+01 1.4322398344258747e+01 7.2389744828789793e+00 0 0 0
37 1 1.4855956880886175e+01 1.5946183522430362e+01 5.6609359772009276e+00 0 0 0
38 2 1.8440587807429900e+01 1.5665624352108601e+01 4.1401747308377317e+00 0 0 0
39 3 1.8437994641788393e+01 1.5670295330947697e+01 7.2601736825613106e+00 0 0 0
40 1 8.2020435664307332e+00 8.7964878331756147e-01 5.6948758915847426e+00 0 1 0
41 2 1.1766116390332233e+01 6.0799954190020866e-01 4.1260230077075244e+00 0 1 0
42 3 1.1800615782621556e+01 6.1326910803486334e-01 7.2449861668851421e+00 0 1 0
43 1 1.1020018001803717e+01 2.2344719464484104e+00 5.6954455945156104e+00 0 1 0
44 2 1.4588717526299636e+01 1.9537557303419031e+00 4.0915793355399765e+00 0 1 0
45 3 1.4632823184111215e+01 1.9469896919279259e+00 7.2079481490816404e+00 0 1 0
46 2 2.0265659596613649e+01 4.6019291095815831e+00 4.0933992362317744e+00 -1 0 0
47 3 2.0261760877488001e+01 4.5555943965128316e+00 7.2095431260440002e+00 -1 0 0
48 1 1.9491759991463557e+01 6.2081352523861826e+00 5.6765297366925793e+00 -1 0 0
49 2 4.1204286954244820e+00 5.9207944116046516e+00 4.1260235923029391e+00 0 0 0
50 3 4.1077428192042014e+00 5.8882827561623667e+00 7.2449868029218587e+00 0 0 0
51 1 2.2297235957609342e+01 7.5357228409222223e+00 5.6972810496662731e+00 -1 0 0
52 2 6.9137153182820255e+00 7.2419147680157394e+00 4.1405529632304710e+00 0 0 0
53 3 6.9056805539390664e+00 7.2434217902425484e+00 7.2612277326622108e+00 0 0 0
54 1 6.1377201323394770e+00 8.8715476645623852e+00 5.6948755110196982e+00 0 0 0
55 2 9.7183362720422206e+00 8.5631125030544233e+00 4.1325878516806940e+00 0 0 0
56 3 9.7091069781249431e+00 8.5900933347337105e+00 7.2525997348042841e+00 0 0 0
57 1 8.9379729571025983e+00 1.0201046976175228e+01 5.6724737949702293e+00 0 0 0
58 2 1.2544287845333960e+01 9.8857563345943245e+00 4.1260231974698165e+00 0 0 0
59 3 1.2522474441901924e+01 9.9129986030078268e+00 7.2449863640673202e+00 0 0 0
60 1 1.1755329147291736e+01 1.1520830004383910e+01 5.6603208549093535e+00 0 0 0
61 2 1.5373394062661269e+01 1.1216244350652868e+01 4.1379163076488084e+00 0 0 0
62 3 1.5345998669765375e+01 1.1230083169843750e+01 7.2572249942515752e+00 0 0 0
63 1 1.4584410634876047e+01 1.2844671328327314e+01 5.6765295406112122e+00 0 0 0
64 2 1.8184006451984196e+01 1.2558464879519095e+01 4.1518709421260080e+00 0 0 0
65 3 1.8176114425910104e+01 1.2567414175903947e+01 7.2720922698963690e+00 0 0 0
66 1 1.7412089638094450e+01 1.4186754566280298e+01 5.7007539204828044e+00 0 0 0
67 2 2.0980742566983892e+01 1.3907226513661220e+01 4.1379158700553376e+00 0 0 0
68 3 2.1006425403177431e+01 1.3924032240643168e+01 7.2572245298621345e+00 0 0 0
69 1 2.0233031025662385e+01 1.5542112789206701e+01 5.6972806512374703e+00 0 0 0
70 2 2.3789559176668568e+01 1.5249612308619540e+01 4.0933983327518044e+00 0 0 0
71 3 2.3831635505772326e+01 1.5269403283783667e+01 7.2095421593049034e+00 0 0 0
72 1 1.3576611147139140e+01 4.7372063836039119e-01 5.6603205827155616e+00 0 1 0
73 1 1.6403959920787582e+01 1.7958752928344703e+00 5.6239728170671297e+00 0 1 0
74 1 1.9233644340433276e+01 3.1040965686951183e+00 5.6246001654994249e+00 -1 0 0
75 2 3.8745877840261134e+00 2.8034721081163694e+00 4.0915800681002690e+00 0 0 0
76 3 3.8466755597366089e+00 2.7686582648599249e+00 7.2079489372889407e+00 0 0 0
77 1 3.0988929291688674e+00 4.4199993833215485e+00 5.6603214631675804e+00 0 0 0
78 2 6.6788476689427148e+00 4.1347706162221618e+00 4.1325883621609156e+00 0 0 0
79 3 6.6600965446488036e+00 4.1132877927332618e+00 7.2526002937505289e+00 0 0 0
80 1 5.9020443836155465e+00 5.7536984679294880e+00 5.6954459616307824e+00 0 0 0
81 2 9.4769442106431292e+00 5.4715167765648287e+00 4.1467449174382356e+00 0 0 0
82 3 9.4769443195454102e+00 5.4715169856913182e+00 7.2681472332010486e+00 0 0 0
83 1 8.7001252569540863e+00 7.0942079090835684e+00 5.7037445579949893e+00 0 0 0
84 2 1.2291768350362016e+01 6.8061388533442440e+00 4.1405529016227272e+00 0 0 0
85 3 1.2297090432229592e+01 6.8123439447525813e+00 7.2612276579667849e+00 0 0 0
86 1 1.1508770473045661e+01 8.4263799382835387e+00 5.6954455746637889e+00 0 0 0
87 2 1.5120654568265348e+01 8.1372068254401739e+00 4.1401748028898151e+00 0 0 0
88 3 1.5117905964457053e+01 8.1326251984009854e+00 7.2601737494710825e+00 0 0 0
89 1 1.4331397016932009e+01 9.7512637842664347e+00 5.6972809293023445e+00 0 0 0
90 2 1.7939823865597639e+01 9.4685804227941404e+00 4.1518710728888424e+00 0 0 0
91 3 1.7936019769842183e+01 9.4572709668779442e+00 7.2720924055308682e+00 0 0 0
92 1 1.7156669722915293e+01 1.1083268035608178e+01 5.7122495311919934e+00 0 0 0
93 2 2.0737833222205779e+01 1.0802054093215505e+01 4.1518708010729695e+00 0 0 0
94 3 2.0749529856173631e+01 1.0804414672268130e+01 7.2720921196046246e+00 0 0 0
95 1 1.9973944061002967e+01 1.2429352592601292e+01 5.7122492471857003e+00 0 0 0
96 1 2.2785493572185477e+01 1.3776292639292830e+01 5.6765288770608784e+00 0 0 0
97 1 8.4600620711630601e+00 3.9874264762322587e+00 5.7037447968024209e+00 0 0 0
98 2 1.2033648899725897e+01 3.7166671787931280e+00 4.1325879331467332e+00 0 0 0
99 3 1.2061629482507426e+01 3.7111695399431661e+00 7.2525998255175734e+00 0 0 0
100 1 1.1270645414575652e+01 5.3329160446779431e+00 5.7037445645388427e+00 0 0 0
101 2 1.4862073245022007e+01 5.0555940528120411e+00 4.1170550900832366e+00 0 0 0
102 3 1.4888710501190246e+01 5.0366635978939343e+00 7.2355641959052770e+00 0 0 0
103 1 1.4091069216762609e+01 6.6633538878867320e+00 5.6948757164511914e+00 0 0 0
104 2 1.7694793756131524e+01 6.3831274893050471e+00 4.1207858362977365e+00 0 0 0
105 3 1.7704821248411960e+01 6.3477499065043324e+00 7.2389745090538247e+00 0 0 0
106 1 1.6915642397316116e+01 7.9859357817313708e+00 5.7007540124171454e+00 0 0 0
107 1 1.9731050190117639e+01 9.3164789011818385e+00 5.7122495173225234e+00 0 0 0
108 1 1.3842323334387281e+01 3.5735141145156053e+00 5.6724739958644852e+00 0 0 0
109 2 1.7430560338780968e+01 3.2826976298604431e+00 4.0746707868168670e+00 0 0 0
110 3 1.7453221387709910e+01 3.2513927985377666e+00 7.1896994383356674e+00 0 0 0
111 1 1.6669998802558549e+01 4.8925452030359482e+00 5.6609357639588733e+00 0 0 0
112 5 2.6650525806945083e+01 1.6248450325627093e+01 1.0512700325344406e+01 -1 0 0
113 6 2.6625850054028412e+01 1.6251670803799886e+01 1.3626263075518411e+01 -1 0 0
114 5 1.9700186007714340e+01 1.6248424686914902e+00 1.0512699816321263e+01 -1 1 0
115 6 1.9715313181667032e+01 1.6446026916313867e+00 1.3626262595978917e+01 -1 1 0
116 5 2.1774030994051518e+01 9.6022097005198788e+00 1.0417820307671464e+01 -1 0 0
117 6 2.1768708518014247e+01 9.6084144776590392e+00 1.3538495069374903e+01 -1 0 0
118 5 2.4365650644138107e+01 1.1377889899638676e+01 1.0443484259061925e+01 -1 0 0
119 6 2.4339013012141482e+01 1.1358959401614738e+01 1.3561993330981299e+01 -1 0 0
120 4 2.3319263064032555e+01 1.2841039336575818e+01 1.2006574322536903e+01 -1 0 0
121 5 7.9762729311896807e+00 1.3163160642799228e+01 1.0489349179505977e+01 0 0 0
122 6 7.9536117580669812e+00 1.3131856128713835e+01 1.3604377790952924e+01 0 0 0
123 4 2.5880899186817125e+01 1.4618678258154397e+01 1.2055075492616860e+01 -1 0 0
124 5 1.0510940056610130e+01 1.4955818219531540e+01 1.0512700189152048e+01 0 0 0
125 6 1.0520489625089114e+01 1.4932838261607927e+01 1.3626262948341742e+01 0 0 0
126 4 1.8953884783791150e+01 4.4049672276625873e-06 1.2079067235810577e+01 -1 1 0
127 5 3.5661188557580830e+00 3.2608465900304706e-01 1.0489348318761797e+01 0 1 0
128 6 3.6045602194084863e+00 3.2211192636319391e-01 1.3604376987112602e+01 0 1 0
129 4 2.5483451344179109e+00 1.7943280495747633e+00 1.2054447699750348e+01 0 1 0
130 5 6.1218426258260141e+00 2.0921551178595803e+00 1.0440073295263414e+01 0 1 0
131 6 6.1574941481070908e+00 2.1011597833338960e+00 1.3558261983029480e+01 0 1 0
132 5 1.9428275089327524e+01 4.7156516939833155e+00 1.0471099159526315e+01 -1 0 0
133 6 1.9444468799585707e+01 4.7572312751033614e+00 1.3587468019848945e+01 -1 0 0
134 5 2.1999415282781566e+01 6.5015549537629509e+00 1.0434061181802715e+01 -1 0 0
135 6 2.2021228345126378e+01 6.5287970133481661e+00 1.3553024388080720e+01 -1 0 0
136 4 2.0985711057283986e+01 7.9881735055435890e+00 1.1983602074865711e+01 -1 0 0
137 5 5.6409587250171516e+00 8.2819283765205043e+00 1.0418874407443260e+01 0 0 0
138 6 5.6437068905592245e+00 8.2773464321307220e+00 1.3538873348076685e+01 0 0 0
139 4 2.3568009550980957e+01 9.7511994692574326e+00 1.1984172497796473e+01 -1 0 0
140 5 8.2278735969928416e+00 1.0066803751936551e+01 1.0440074169225282e+01 0 0 0
141 6 8.2178458706328978e+00 1.0031425967627634e+01 1.3558262796284080e+01 0 0 0
142 4 7.1930507310323382e+00 1.1522008242660727e+01 1.2018112881115318e+01 0 0 0
143 5 1.0784812683437126e+01 1.1858959323774846e+01 1.0469505652759871e+01 0 0 0
144 6 1.0788711468282232e+01 1.1812624661980363e+01 1.3585649491778396e+01 0 0 0
145 4 9.7566958255632699e+00 1.3310457019023293e+01 1.2054448486324659e+01 0 0 0
146 5 1.3323614955584315e+01 1.3645895423082314e+01 1.0471099565067439e+01 0 0 0
147 6 1.3351527373913276e+01 1.3611081840879979e+01 1.3587468400924255e+01 0 0 0
148 4 1.2307177747004950e+01 1.5104187720758761e+01 1.2055074934430605e+01 0 0 0
149 5 1.5871407212028865e+01 1.5412337354369926e+01 1.0443483558220890e+01 0 0 0
150 6 1.5901119962777900e+01 1.5398734052335335e+01 1.3561992684949962e+01 0 0 0
151 4 5.3790098002267657e+00 4.6837009636508969e-01 1.2018111983567488e+01 0 1 0
152 5 8.9610476164508057e+00 7.4425828054569976e-01 1.0418874210469252e+01 0 1 0
153 6 8.9636408852145362e+00 7.4892946222432599e-01 1.3538873162008183e+01 0 1 0
154 4 7.9351425262088000e+00 2.2277990612149488e+00 1.1978293888669850e+01 0 1 0
155 5 1.1529478206214646e+01 2.4905215186314704e+00 1.0421823196005324e+01 0 1 0
156 6 1.1503795560299336e+01 2.5073272580143038e+00 1.3541131871061260e+01 0 1 0
157 4 1.8673575678863450e+01 3.1062451558344497e+00 1.2055074746093233e+01 -1 0 0
158 5 3.2913205694093781e+00 3.4104521771789535e+00 1.0469504756864776e+01 0 0 0
159 6 3.3294983327376335e+00 3.4369958073934956e+00 1.3585648652384952e+01 0 0 0
160 4 2.1232269809513436e+01 4.8937234904834161e+00 1.2018726522034298e+01 -1 0 0
161 5 5.8690515707641175e+00 5.1844703534581082e+00 1.0421822766700714e+01 0 0 0
162 6 5.8964467090630901e+00 5.1983090474581610e+00 1.3541131473591179e+01 0 0 0
163 4 4.8544496804985249e+00 6.6632896074954804e+00 1.1981766878231765e+01 0 0 0
164 5 8.4590725737332235e+00 6.9572828048404682e+00 1.0406955813787800e+01 0 0 0
165 6 8.4628765126229197e+00 6.9459729476964931e+00 1.3527177133628596e+01 0 0 0
166 4 7.4386949152183508e+00 8.4286176744908197e+00 1.1978294382240755e+01 0 0 0
167 5 1.1032292480410131e+01 8.7395697896850546e+00 1.0421823390996494e+01 0 0 0
168 6 1.1030579705369671e+01 8.7089250508832645e+00 1.3541132058024379e+01 0 0 0
169 4 1.0014812206808656e+01 1.0206418365721538e+01 1.2002518991262436e+01 0 0 0
170 5 1.3584682929037458e+01 1.0526271305880625e+01 1.0434061673661191e+01 0 0 0
171 6 1.3597369044274739e+01 1.0493759339360677e+01 1.3553024849063819e+01 0 0 0
172 4 1.2575832783243321e+01 1.1994554338417705e+01 1.2018727185045543e+01 0 0 0
173 5 1.6137036356846124e+01 1.2301266130022615e+01 1.0426447991564920e+01 0 0 0
174 6 1.6155787647675851e+01 1.2279783189760677e+01 1.3546459901266934e+01 0 0 0
175 4 1.5127476315927316e+01 1.3774564657445229e+01 1.2006573742579249e+01 0 0 0
176 5 1.8705001528976492e+01 1.4055768644066340e+01 1.0417820291438810e+01 0 0 0
177 6 1.8702288614749090e+01 1.4048057090021150e+01 1.3538495052758433e+01 0 0 0
178 4 1.7678982859424018e+01 1.5534904877101932e+01 1.1984172160637129e+01 0 0 0
179 5 2.1277554964214797e+01 1.5801284477768531e+01 1.0434061804345571e+01 0 0 0
180 6 2.1243055608536196e+01 1.5806554280259681e+01 1.3553024959059263e+01 0 0 0
181 4 1.0756084058960450e+01 8.7244090645735028e-01 1.1981767190208519e+01 0 1 0
182 5 1.4354688266060188e+01 1.1451503074015983e+00 1.0469505558913077e+01 0 1 0
183 6 1.4312612096724095e+01 1.1649415911485206e+00 1.3585649402074237e+01 0 1 0
184 4 1.3308546447065869e+01 2.6382611479951334e+00 1.2002518745985181e+01 0 1 0
185 4 5.1074633686045834e+00 3.5698821755101200e+00 1.2002518102255145e+01 0 0 0
186 5 8.6991672935231907e+00 3.8471395102955444e+00 1.0406955561731889e+01 0 0 0
187 6 8.7070593373589222e+00 3.8560886953966667e+00 1.3527176897226001e+01 0 0 0
188 4 7.6797225017540818e+00 5.3312855082171060e+00 1.1966798399811756e+01 0 0 0
189 5 1.1272582593432247e+01 5.6101393179539514e+00 1.0406955823151476e+01 0 0 0
190 6 1.1260886140602224e+01 5.6124994874570371e+00 1.3527177146761044e+01 0 0 0
191 4 1.0254102896388538e+01 7.0980747958517867e+00 1.1966798734041893e+01 0 0 0
192 5 1.3828816004686406e+01 7.3883749807393739e+00 1.0418874400433973e+01 0 0 0
193 6 1.3823474208119773e+01 7.3882854454456020e+00 1.3538873350808576e+01 0 0 0
194 4 1.2820288468755527e+01 8.8788309717937626e+00 1.1981767295232542e+01 0 0 0
195 5 1.6382620967537587e+01 9.1711323260207873e+00 1.0417820173786861e+01 0 0 0
196 6 1.6390655891879053e+01 9.1726388620745638e+00 1.3538494950867323e+01 0 0 0
197 4 1.5378984619461974e+01 1.0660855309571724e+01 1.1983602284304244e+01 0 0 0
198 5 1.8953884545374002e+01 1.0943036880887771e+01 1.0410900764700562e+01 0 0 0
199 6 1.8953884344719192e+01 1.0943036782936955e+01 1.3532303080463400e+01 0 0 0
200 4 1.7937001983572770e+01 1.2427127173999230e+01 1.1975303350189629e+01 0 0 0
201 5 2.1538569348752809e+01 1.2703384054786589e+01 1.0426448361248450e+01 0 0 0
202 6 2.1510588545353698e+01 1.2697886412647424e+01 1.3546460235354482e+01 0 0 0
203 4 2.0496957552407522e+01 1.4180081634436025e+01 1.1983602503899133e+01 0 0 0
204 5 2.4109762525454091e+01 1.4467563747238316e+01 1.0471100084429631e+01 0 0 0
205 6 2.4065656753877956e+01 1.4460798049319393e+01 1.3587468876740500e+01 0 0 0
206 4 2.3053550328041588e+01 1.5940832992554100e+01 1.2018727385987653e+01 0 0 0
207 4 1.6125780624577157e+01 1.3097770149410148e+00 1.2054448284800847e+01 0 1 0
208 4 1.0496996932809932e+01 3.9852011447486193e+00 1.1966798564333159e+01 0 0 0
209 5 1.4081105743984807e+01 4.2556028485996977e+00 1.0440073792677909e+01 0 0 0
210 6 1.4055481920953365e+01 4.2819758804148762e+00 1.3558262454736109e+01 0 0 0
211 4 1.3056984788428869e+01 5.7581447689584904e+00 1.1978294251739204e+01 0 0 0
212 5 1.6624595161612223e+01 6.0388835163923531e+00 1.0443483612795740e+01 0 0 0
213 6 1.6621519996820847e+01 6.0714173215143061e+00 1.3561992741129403e+01 0 0 0
214 4 1.5614660807778611e+01 7.5430061574739522e+00 1.1984172216389489e+01 0 0 0
215 5 1.9186047651016906e+01 7.8244605117401731e+00 1.0426447786806255e+01 0 0 0
216 6 1.9195276814856157e+01 7.8514409497095281e+00 1.3546459710082342e+01 0 0 0
217 4 1.8177065735842561e+01 9.3203457332551132e+00 1.1975303234401903e+01 0 0 0
218 4 2.0747585578962873e+01 1.1081637427126948e+01 1.1975303489956008e+01 0 0 0
219 5 1.6888429415870725e+01 2.9253165747486962e+00 1.0489348585715268e+01 0 0 0
220 6 1.6872649881287209e+01 2.9605943017994689e+00 1.3604377240836765e+01 0 0 0
221 4 1.5858761353891422e+01 4.4241834395117738e+00 1.2018112291735376e+01 0 0 0
222 4 1.8414913644160013e+01 6.2135066746290750e+00 1.2006573539501098e+01 0 0 0

Velocities

1 -3.1471950429781806e-07 -1.8135238706141582e-06 -7.5358370345053458e-05
2 -1.1057303786629017e-06 -1.1944753029560443e-06 -7.3887120721855112e-05
3 -1.4191487498459479e-06 1.1806800113925409e-06 -7.5358521226053237e-05
4 -4.8746135236454051e-07 1.5568310941830074e-06 -7.3887232553844690e-05
5 2.4802855101485073e-06 -2.4326520141232719e-06 -6.3237750147855431e-05
6 -1.5088848609414306e-08 -2.9410717752461282e-06 -6.1728613208424104e-05
7 2.7681596228079321e-06 -2.0704523247973957e-06 -7.1246606374022461e-05
8 5.8303018685612827e-07 -2.5461820963256390e-06 -6.9554657215771637e-05
9 1.6272151896849746e-06 -1.5192361015721081e-06 3.2284911694282376e-05
10 1.7260786466233194e-06 6.4014096001617097e-07 -7.5358465259320971e-05
11 1.5861321478279766e-06 -3.5420662046945257e-07 -7.3887208643687335e-05
12 -1.6676364760564845e-09 1.7209965966819326e-09 3.8619169853057398e-05
13 4.0739527618542644e-07 3.4381446065823686e-06 -7.1246890839647209e-05
14 1.9121758992330531e-06 1.7837848557307641e-06 -6.9554865297149707e-05
15 -1.8149371106830236e-06 1.6034970866125300e-06 3.2428613414431468e-05
16 -3.5651364512987857e-07 3.4963508191352344e-06 -6.3231850827303920e-05
17 8.5830424750018498e-07 2.0691714441024857e-06 -6.1773137368448179e-05
18 -1.9389612382659800e-06 1.7503158191320716e-06 2.0469856630984402e-05
19 -6.0067169176900071e-07 8.7694903142893071e-07 -5.8818598384573891e-05
20 -5.1771078219045078e-07 9.5162204031253333e-08 -5.7775214125395327e-05
21 -1.7404253346460827e-06 -4.3853034555461613e-07 -6.0449207802389733e-05
22 -2.1306086860713239e-06 1.4518304776007240e-06 -5.9276115852009145e-05
23 1.1067919923867361e-06 -1.0772202370779021e-06 -5.9559695073228524e-05
24 -5.1302392033485484e-07 -4.1836870381537251e-07 -5.8496764948483032e-05
25 8.7395579741929558e-07 -5.4561640974593229e-07 1.3983664641253380e-05
26 3.2011952283583364e-06 -1.4378592988284300e-06 -6.3231572074963591e-05
27 1.3576812958612995e-06 -1.7767182190582246e-06 -6.1772914330532189e-05
28 2.4327173265340487e-06 -4.2342044294689308e-07 2.3328440742333296e-05
29 3.3259925938698521e-06 -1.2095558528812905e-07 -6.7848558447967548e-05
30 2.7721576944463965e-06 -1.1130141510270809e-06 -6.6221054440667511e-05
31 2.2923609326669745e-06 7.7113464837201562e-07 3.2429861881856843e-05
32 2.0666608361427457e-06 2.3255162253499837e-06 -6.7884107558472182e-05
33 3.4368090673599456e-06 6.8499639047230434e-07 -6.6180823708274013e-05
34 5.0104452376775097e-07 2.1726452970812741e-06 3.2283961025555456e-05
35 8.6524882703878403e-07 3.3694238094889817e-06 -6.3238066497931110e-05
36 2.5529123879854058e-06 1.4627068165058783e-06 -6.1728875861924589e-05
37 -8.5062183742186240e-07 2.3219376592824750e-06 2.3327046241293027e-05
38 3.7848170586517806e-07 1.5018806216209277e-06 -5.9559812195392908e-05
39 6.1709286838180217e-07 -2.3040789465574371e-07 -5.8496791048525278e-05
40 -8.7926794364309226e-07 7.0054101245727732e-07 1.5234567310881910e-05
41 -2.3938395089502631e-07 -1.5697685974370683e-06 -6.1661251806680018e-05
42 -1.2613582763579633e-06 -2.3987765184444403e-06 -6.0382944601053347e-05
43 -4.1413908973240727e-07 -1.4841273085396852e-06 1.5049887262810021e-05
44 -1.7736052199646719e-06 -2.8184797002162058e-06 -6.7848484024538160e-05
45 -2.3556653636551812e-06 -1.8423493794456827e-06 -6.6220939425642636e-05
46 -3.0486863369670970e-06 6.3279629695358992e-07 -6.7884085762240126e-05
47 -2.3126948768213699e-06 2.6396163688024589e-06 -6.6180847835465700e-05
48 -2.1705530917576907e-06 -4.5999732088845345e-07 1.9581466485658489e-05
49 -1.2445864374030572e-06 9.9359609164778688e-07 -6.1661417024009934e-05
50 -1.4518265403266023e-06 2.2927606252541168e-06 -6.0383212223770656e-05
51 -1.0755887589452365e-06 3.2513910166424692e-07 1.4663397486404260e-05
52 1.0550818655878178e-06 8.3233409995276196e-08 -5.8818543679909339e-05
53 3.3635807944082045e-07 4.0168797199759093e-07 -5.7775228835709870e-05
54 1.0431936431440017e-06 4.1202459207665361e-07 1.5235141802965382e-05
55 2.1455706911845934e-06 -3.6391842650648097e-07 -6.0178585978454506e-05
56 1.9584257409976171e-06 -6.8782203322589457e-07 -5.8978830034084823e-05
57 2.4819596133440699e-06 8.0508144545070417e-07 2.0471119398779422e-05
58 1.4774321695090263e-06 5.8301460407996372e-07 -6.1661379772960439e-05
59 2.7065406139129250e-06 1.1273482861608369e-07 -6.0383086855321025e-05
60 2.0475732237206858e-06 1.7087371375471475e-06 2.3340257467359234e-05
61 4.8513417751700817e-07 1.7283763727375178e-06 -6.0449296657605243e-05
62 2.3175205344894292e-06 1.1209978407340105e-06 -5.9276115573098556e-05
63 6.8317983319594327e-07 2.1108702356640659e-06 1.9581837526059218e-05
64 5.7829336798805378e-07 1.0902834128090441e-06 -5.8497379205911530e-05
65 1.0897382954189154e-06 3.6703967825097681e-08 -5.7598159701126855e-05
66 3.4578137495009417e-08 1.0328620709126500e-06 1.3983088271715922e-05
67 1.2489989339308848e-06 -1.2830397380218054e-06 -6.0449073589002679e-05
68 -1.9351415238873835e-07 -2.5662475711058117e-06 -5.9275904943310300e-05
69 2.5536227477013180e-07 -1.0909079938095978e-06 1.4664055618827331e-05
70 9.7492982500137564e-07 -2.9512645908730306e-06 -6.7883836290424850e-05
71 -1.1309755811212387e-06 -3.3172073604326634e-06 -6.6180586985626751e-05
72 4.5226682688472426e-07 -2.6266600703938258e-06 2.3340688547753793e-05
73 -4.8222468453558559e-07 -2.3696443114271118e-06 3.2429514518227608e-05
74 -2.1330773478850766e-06 -6.4842375657551950e-07 3.2283595003967546e-05
75 -1.5595195645235810e-06 2.9464872749743397e-06 -6.7848753365154512e-05
76 -4.2334740643442774e-07 2.9627607296863571e-06 -6.6221234403346317e-05
77 -2.5043572359720759e-06 9.2262099739594174e-07 2.3339260745074686e-05
78 -7.5859226423354204e-07 2.0453300753503825e-06 -6.0178745142377101e-05
79 -3.8480321659961560e-07 2.0448748183863601e-06 -5.8979006130668305e-05
80 -1.0814264547179663e-06 1.1015495730404345e-06 1.5049317804140881e-05
81 -2.0685111862406019e-09 2.2335888065496541e-09 -5.7654039967125557e-05
82 -2.1672846026596365e-09 2.0633705127772247e-09 -5.6677507888405411e-05
83 7.6061895888078797e-07 5.1676922873395875e-07 1.3211283890481689e-05
84 -4.6070747871999337e-07 -9.5344213711894832e-07 -5.8818529297686333e-05
85 1.7481481869111440e-07 -4.9049772675433399e-07 -5.7775140106462708e-05
86 1.4913791420056645e-06 3.8697612350650104e-07 1.5049900536426700e-05
87 -1.4915414760688593e-06 -4.1788568632546586e-07 -5.9559816656884102e-05
88 -1.1063487647366631e-07 6.5525492034964848e-07 -5.8496799942121783e-05
89 8.1593275389432651e-07 7.7017374161989967e-07 1.4663581514467159e-05
90 -1.2345956555619043e-06 -3.9110852780717750e-08 -5.8497392337227545e-05
91 -5.7811600197371196e-07 9.3069847465066743e-07 -5.7598197159833354e-05
92 1.4034665281257222e-07 6.7059796204403407e-07 1.1415437120007722e-05
93 6.5027012360568487e-07 -1.0444312137387842e-06 -5.8497270806278429e-05
94 -5.1816678399499951e-07 -9.6105529927971945e-07 -5.7598090972745856e-05
95 5.0713436714589023e-07 -4.5604353271716702e-07 1.1415894806860369e-05
96 1.4829043474746586e-06 -1.6462864755277483e-06 1.9582890714479495e-05
97 -8.2858382246209794e-07 4.0355100662787279e-07 1.3210922695542137e-05
98 -1.3934173234766351e-06 -1.6746238082931865e-06 -6.0178571619459739e-05
99 -1.5802148704845872e-06 -1.3505382087981775e-06 -5.8978766662330954e-05
100 6.3884908399228283e-08 -9.1599073571339206e-07 1.3211252545344438e-05
101 -2.8513754354830085e-06 -2.0515899666056563e-06 -6.3231652534795910e-05
102 -2.2227014620415812e-06 -2.8555894237181337e-07 -6.1772920415487971e-05
103 -1.6816701823024384e-07 -1.1081456207353888e-06 1.5234770201563773e-05
104 -3.3521414458840516e-06 -9.2986548036758023e-07 -6.3237960191788009e-05
105 -2.5445399682808212e-06 1.4852702045018714e-06 -6.1728801370320271e-05
106 -9.1284626921353318e-07 -4.8284970644976216e-07 1.3982877130836458e-05
107 -6.5175169494424665e-07 -2.1024928578143622e-07 1.1415443616681951e-05
108 -5.4737050839760245e-07 -2.5508003295685582e-06 2.0470764180097570e-05
109 -3.1829747262406525e-06 -1.3605237097688690e-06 -7.1246727529345215e-05
110 -2.5021737101573187e-06 7.7015067216837114e-07 -6.9554709297592535e-05
111 -1.5866325145463733e-06 -1.8938071887074328e-06 2.3327309891612238e-05
112 -1.1009013013116966e-06 1.1946181795732945e-06 7.3906757941740641e-05
113 -3.0999942588030178e-07 1.8131813488235737e-06 7.5377750966600936e-05
114 1.5910452856477493e-06 3.5471972247613605e-07 7.3906839844816420e-05
115 1.7310660672775347e-06 -6.4006362850955999e-07 7.5377874832979313e-05
116 1.7885337640901737e-07 4.9043272865921305e-07 5.7791687692329354e-05
117 -4.5659233059775498e-07 9.5381875392606306e-07 5.8835088767260539e-05
118 -2.2183110351174313e-06 2.8533920075953597e-07 6.1790181763534253e-05
119 -2.8471177416490298e-06 2.0514840395062673e-06 6.3248865547167280e-05
120 -5.4423528920631427e-07 2.5512673437211777e-06 -2.0485010489252575e-05
121 -2.4973170099614319e-06 -7.7037342336098714e-07 6.9573438159751408e-05
122 -3.1783348014813299e-06 1.3600153698205728e-06 7.1265246705093165e-05
123 -4.7884798863520577e-07 2.3699905093174590e-06 -3.2444988922670474e-05
124 -4.8225016800035681e-07 -1.5566550429254691e-06 7.3906724806428411e-05
125 -1.4140212039115481e-06 -1.1811596999656555e-06 7.5377733959269047e-05
126 1.6649474701345130e-09 -1.7245450203825662e-09 -3.8634691683632790e-05
127 1.9174367096915911e-06 -1.7831686048426343e-06 6.9573591330920705e-05
128 4.1271051958413290e-07 -3.4382908293223725e-06 7.1265485838939489e-05
129 5.0413144559831411e-07 -2.1728538875116406e-06 -3.2298321666087349e-05
130 2.5578437479144024e-06 -1.4620773438006014e-06 6.1746146255716320e-05
131 8.7024633600482269e-07 -3.3692896449782563e-06 6.3255378411693273e-05
132 2.7764274021119903e-06 1.1133305045499274e-06 6.6239437059050654e-05
133 3.3304364811615495e-06 1.2155167264465693e-07 6.7866869300973277e-05
134 2.7106833079089077e-06 -1.1245971610094493e-07 6.0400256613126891e-05
135 1.4817503009625509e-06 -5.8229554240604202e-07 6.1678518282093364e-05
136 1.4941768279245038e-06 -3.8689985430565211e-07 -1.5062495485762668e-05
137 -1.0649441431978222e-07 -6.5531525324760240e-07 5.8513375869219674e-05
138 -1.4873617046863399e-06 4.1827599774158046e-07 5.9576412765818934e-05
139 -1.6534115830667327e-07 1.1086106959767558e-06 -1.5248363409761580e-05
140 -2.5401304483253301e-06 -1.4856992449569819e-06 6.1745889129109381e-05
141 -3.3478558825424458e-06 9.2969753795869394e-07 6.3255073998942312e-05
142 -1.5836595195671430e-06 1.8943890171789244e-06 -2.3342481056850422e-05
143 -2.3078664238587972e-06 -2.6400178393474217e-06 6.6198789630621122e-05
144 -3.0439939123422970e-06 -6.3332323848760442e-07 6.7901974728050212e-05
145 -2.1300617875023822e-06 6.4875406721617950e-07 -3.2299630389559038e-05
146 -4.1823218024582635e-07 -2.9627203461527310e-06 6.6239205869824688e-05
147 -1.5544305712268906e-06 -2.9469923930293054e-06 6.7866674190538361e-05
148 -1.8120169867675056e-06 -1.6035272715667166e-06 -3.2444029527164571e-05
149 8.6338673133612745e-07 -2.0687723889702311e-06 6.1790320304767616e-05
150 -3.5141148326435049e-07 -3.4966684944045651e-06 6.3249079566518349e-05
151 -8.4776737625112492e-07 -2.3221186096066486e-06 -2.3341004464284806e-05
152 6.2185117947492879e-07 2.3077827001070999e-07 5.8513404146143459e-05
153 3.8319960516093005e-07 -1.5020668818126388e-06 5.9576543265944560e-05
154 3.7466381785693903e-08 -1.0330157917455039e-06 -1.3996009592869714e-05
155 -1.8915582024568925e-07 2.5662946895504151e-06 5.9292763644517617e-05
156 1.2532593086471672e-06 1.2829445608738107e-06 6.0466074354026456e-05
157 2.2956899205509875e-06 -7.7142913589188742e-07 -3.2443750709029406e-05