LAMMPS data file via write_data, version 3 Mar 2020, timestep = 262

42 atoms
6 atom types

0.0000000000000000e+00 8.2441607960999992e+00 xlo xhi
0.0000000000000000e+00 7.1396526755999998e+00 ylo yhi
0.0000000000000000e+00 1.0000000000000000e+02 zlo zhi
4.1220804095999997e+00 0.0000000000000000e+00 0.0000000000000000e+00 xy xz yz

Masses

1 95.94
2 32.066
3 32.066
4 95.94
5 32.066
6 32.066

Atoms # atomic

1 2 6.4750194434941042e+00 3.4278880327482297e-01 4.0983073114709816e+00 -1 1 0
2 3 6.4801291482712928e+00 3.5266881195730559e-01 7.2120466560205463e+00 -1 1 0
3 2 1.1814345524345728e+00 1.3607273771536010e+00 4.0983073114843043e+00 0 1 0
4 3 1.1874360391837782e+00 1.3513622391025863e+00 7.2120466559847305e+00 0 1 0
5 2 4.1220805554098714e+00 2.3798844198586679e+00 4.0993424846919746e+00 0 1 0
6 3 4.1220805550911335e+00 2.3798844198454634e+00 7.2221181334242432e+00 0 1 0
7 2 1.0008124442688311e+01 4.4213638045208814e+00 4.1010367014041655e+00 -1 0 0
8 3 1.0008079026502948e+01 4.4229017153912151e+00 7.2222986770041437e+00 -1 0 0
9 1 9.4215698365337346e+00 6.1225394916519758e+00 5.6607230501766708e+00 -1 0 0
10 2 4.7097876703855883e+00 5.4361370799123989e+00 4.0983073112315376e+00 0 0 0
11 3 4.6986764796749334e+00 5.4356222092128483e+00 7.2120466550312985e+00 0 0 0
12 1 1.5379569174645573e-07 1.9599194659288475e-07 5.6534619295802759e+00 0 1 0
13 2 7.6552464060799013e+00 6.4566082543837346e+00 4.1010367013225233e+00 0 0 0
14 3 7.6539372446141343e+00 6.4557999672028989e+00 7.2222986768626267e+00 0 0 0
15 1 2.9494557956043779e+00 1.0167429905636933e+00 5.6584287615549824e+00 0 1 0
16 1 5.8889080422745481e+00 2.0459323076463942e+00 5.6584287617407094e+00 0 1 0
17 1 8.8356506886897570e+00 3.0587172265985627e+00 5.6607230504211525e+00 -1 0 0
18 1 3.5278778281447454e+00 4.0769779643474626e+00 5.6584287613733002e+00 0 0 0
19 2 7.0691120229058102e+00 3.4013338762848089e+00 4.1010367014697184e+00 0 0 0
20 3 7.0704666000557053e+00 3.4006042526737108e+00 7.2222986773280482e+00 0 0 0
21 1 6.4752623467552874e+00 5.0980492202946994e+00 5.6607230499748109e+00 0 0 0
22 5 8.2441609276729082e+00 4.7597686258647256e+00 1.0456929495712155e+01 -1 0 0
23 6 8.2441609275329490e+00 4.7597686255805876e+00 1.3579705144444427e+01 -1 0 0
24 5 1.0602209525853274e+01 6.7869842334913519e+00 1.0467000973088558e+01 -1 0 0
25 6 1.0597099821746653e+01 6.7968642425057517e+00 1.3580740317637300e+01 -1 0 0
26 5 8.8207568415486435e+00 1.7040308358913365e+00 1.0467000973180934e+01 -1 1 0
27 6 8.8318680324356009e+00 1.7035159656884977e+00 1.3580740317682627e+01 -1 1 0
28 4 7.6499581941658370e+00 3.0626750827029006e+00 1.2020618867409524e+01 -1 0 0
29 5 2.9483861735092640e+00 3.7390487924639650e+00 1.0456748952253738e+01 0 0 0
30 6 2.9470315955971964e+00 3.7383191689841637e+00 1.3578010927809684e+01 0 0 0
31 4 1.0010988414680943e+01 5.0937207391750432e+00 1.2020618867558769e+01 -1 0 0
32 5 5.3095164142015463e+00 5.7882908068124257e+00 1.0467000974103129e+01 0 0 0
33 6 5.3035149276876101e+00 5.7789256687768020e+00 1.3580740317902452e+01 0 0 0
34 4 1.2243960600361805e-07 1.7554835971161409e-07 1.2025585699556123e+01 0 1 0
35 5 3.5318568070758021e+00 6.8385307844606213e-01 1.0456748952159936e+01 0 1 0
36 6 3.5331659688818982e+00 6.8304479138882956e-01 1.3578010927740467e+01 0 1 0
37 4 2.3531819127618672e+00 2.0416038264999221e+00 1.2018324578988073e+01 0 1 0
38 5 5.8859985965382196e+00 2.7167513309607534e+00 1.0456748951800703e+01 0 0 0
39 6 5.8860440125134659e+00 2.7182892410035211e+00 1.3578010927662639e+01 0 0 0
40 4 4.7135702618749482e+00 4.0809358204566433e+00 1.2018324579146052e+01 0 0 0
41 4 7.0715361712354330e+00 6.1229100565333274e+00 1.2020618867771912e+01 0 0 0
42 4 5.2994893992901764e+00 1.0171135557756219e+00 1.2018324578702439e+01 0 1 0

Velocities

1 2.8329534747543436e-06 -3.1497717498350057e-06 -2.3104429017965409e-04
2 -3.0414673746315601e-06 -1.6560110477277982e-05 -2.1813230132809600e-04
3 -4.1444020171099835e-06 -8.7880804838460117e-07 -2.3104429032802482e-04
4 -1.2820892278370608e-05 1.0913753970681902e-05 -2.1813230097862904e-04
5 -1.5192546501186394e-10 -9.7581387523286094e-11 -2.3178306622251849e-04
6 -1.4849605931637473e-10 -9.7555460718155726e-11 -2.2950831202282919e-04
7 3.2622419983872495e-06 -1.5599646057403167e-06 -2.3422342626477343e-04
8 3.3931758948137589e-06 -3.7007351124640799e-06 -2.2981371898606680e-04
9 -3.4985440836306618e-08 -3.3144656200034665e-06 -2.3399630905931160e-04
10 1.3109913413197736e-06 4.0282787485748521e-06 -2.3104428738643411e-04
11 1.5861893346691662e-05 5.6460558280371520e-06 -2.1813228979487194e-04
12 -1.5515436765963101e-10 -1.0187191940595863e-10 -2.2583642613112616e-04
13 -2.8046525024988271e-07 3.6051481106031830e-06 -2.3422342548448208e-04
14 1.5080258427591032e-06 4.7889277116021814e-06 -2.2981371749706951e-04
15 -6.2998057039762616e-06 3.6759274675740809e-06 -2.3088980223296785e-04
16 -3.3855591970829215e-08 -7.2937694532529287e-06 -2.3088980414780424e-04
17 -2.8530587006560659e-06 1.6872466166962421e-06 -2.3399631162004868e-04
18 6.3332076430239724e-06 3.6175480557529196e-06 -2.3088980004628672e-04
19 -2.9822301598730227e-06 -2.0454768102705200e-06 -2.3422342699588107e-04
20 -4.9016493329973826e-06 -1.0884861605768394e-06 -2.2981372241211048e-04
21 2.8875871445638784e-06 1.6269208863632768e-06 -2.3399630646188393e-04
22 1.4930952133450114e-10 9.6247592163675232e-11 2.2950831201331168e-04
23 1.5080486680724268e-10 9.9433578415411380e-11 2.3178306616228295e-04
24 -3.0411521361199371e-06 1.6560112241923906e-05 2.1813230157735524e-04
25 2.8332614195437883e-06 3.1497702134119097e-06 2.3104429066776757e-04
26 1.5862200305682378e-05 -5.6460500744286622e-06 2.1813230061317853e-04
27 1.3112959851873177e-06 -4.0282787024113980e-06 2.3104428996472768e-04
28 6.3335078115663788e-06 -3.6175480061312083e-06 2.3088980407313508e-04
29 -4.9013549384787583e-06 1.0884917692684171e-06 2.2981371769785770e-04
30 -2.9819267601479880e-06 2.0454805048866548e-06 2.3422342540647037e-04
31 -3.3553417777518700e-08 7.2937722186833550e-06 2.3088980259315062e-04
32 -1.2820584624089341e-05 -1.0913757100980628e-05 2.1813228958734781e-04
33 -4.1440973167298746e-06 8.7880474347069960e-07 2.3104428723351862e-04
34 1.5591917397033636e-10 1.0069719426257981e-10 2.2583642620953450e-04
35 1.5083329606271800e-06 -4.7889279871966785e-06 2.2981371893266900e-04
36 -2.8016201511109715e-07 -3.6051500223381355e-06 2.3422342624636910e-04
37 2.8878945881481090e-06 -1.6269179146192027e-06 2.3399630877314167e-04
38 3.3934716527744057e-06 3.7007266959561960e-06 2.2981372239675948e-04
39 3.2625403046839098e-06 1.5599655874966420e-06 2.3422342690026168e-04
40 -2.8527579316736805e-06 -1.6872464466354891e-06 2.3399630700900450e-04
41 -6.2995020827685767e-06 -3.6759279783065199e-06 2.3088979991490988e-04
42 -3.4679099610903479e-08 3.3144614980919866e-06 2.3399631151270960e-04
