LAMMPS data file via write_data, version 3 Mar 2020, timestep = 241

762 atoms
6 atom types

0.0000000000000000e+00 3.5115535381599997e+01 xlo xhi
0.0000000000000000e+00 3.0410945701100001e+01 ylo yhi
0.0000000000000000e+00 1.0000000000000000e+02 zlo zhi
1.7557767702600000e+01 0.0000000000000000e+00 0.0000000000000000e+00 xy xz yz

Masses

1 95.94
2 32.066
3 32.066
4 95.94
5 32.066
6 32.066

Atoms # atomic

1 2 3.3308618473876813e+01 1.0754804020302342e-01 3.9803363646798360e+00 -1 1 0
2 3 3.3328633862065139e+01 1.0889123880746193e-01 7.0968727344216633e+00 -1 1 0
3 2 9.9659845575175143e-01 1.5110634175730147e+00 3.9803363640790188e+00 0 1 0
4 3 9.8775400847758432e-01 1.4930579833192654e+00 7.0968727338181425e+00 0 1 0
5 2 4.7893919299963741e+01 2.5980084572511423e+01 4.0454178292044638e+00 -1 0 0
6 3 4.7930572447718120e+01 2.6021225442663528e+01 7.1624041265874103e+00 -1 0 0
7 2 5.0682460641098288e+01 2.7389303942274111e+01 3.9980553393876428e+00 -1 0 0
8 3 5.0699188471212523e+01 2.7422113625481739e+01 7.1146859383438761e+00 -1 0 0
9 1 4.9885850501038909e+01 2.9015310572811753e+01 5.5493787702714661e+00 -1 0 0
10 2 1.8368088447153536e+01 2.8792335906217950e+01 3.9803363630264545e+00 0 0 0
11 3 1.8356917510068818e+01 2.8808998139166203e+01 7.0968727327631358e+00 0 0 0
12 1 7.6477737227107748e-07 5.5409461489680965e-07 5.5309194020204515e+00 0 1 0
13 2 2.1170009074556415e+01 3.0197646620624241e+01 3.9980553381754262e+00 0 0 0
14 3 2.1133231141341962e+01 3.0195728502481149e+01 7.1146859371325393e+00 0 0 0
15 1 2.7884309593455829e+00 1.3959670573489069e+00 5.5490962638979404e+00 0 1 0
16 2 6.4035647959952655e+00 1.2025271449211381e+00 4.0436601064696358e+00 0 1 0
17 3 6.3531863372007935e+00 1.1858518746712405e+00 7.1607655993599018e+00 0 1 0
18 2 4.4990492156430278e+01 2.1428430864702602e+01 4.1453497830585242e+00 -1 0 0
19 3 4.5020157759740627e+01 2.1464052934700817e+01 7.2635193154621982e+00 -1 0 0
20 2 4.7740965939921978e+01 2.2852714045777823e+01 4.0927570790685417e+00 -1 0 0
21 3 4.7766508101516926e+01 2.2901357681077553e+01 7.2104310061752761e+00 -1 0 0
22 1 4.6940991718393107e+01 2.4484540975787898e+01 5.6378302274464200e+00 -1 0 0
23 2 1.5397405025497317e+01 2.4264033834688338e+01 4.0436601072363345e+00 0 0 0
24 3 1.5408153049406009e+01 2.4316000494609064e+01 7.1607656001186637e+00 0 0 0
25 1 4.9708067154933069e+01 2.5898027418443021e+01 5.5824182622146443e+00 -1 0 0
26 2 1.8188158494355473e+01 2.5668046697341648e+01 4.0141434103184288e+00 0 0 0
27 3 1.8175256588942005e+01 2.5712291968837555e+01 7.1309001706960622e+00 0 0 0
28 1 1.7372495824052592e+01 2.7298111619189633e+01 5.5490962635078143e+00 0 0 0
29 2 2.0987970547769581e+01 2.7072947812560237e+01 4.0150470798336890e+00 0 0 0
30 3 2.0950136668904761e+01 2.7101562086707354e+01 7.1317393065849002e+00 0 0 0
31 1 2.0160151095794046e+01 2.8694758685886583e+01 5.5493787680589861e+00 0 0 0
32 2 2.3784699517776424e+01 2.8487308664439549e+01 4.0454178263791141e+00 0 0 0
33 3 2.3730743905594839e+01 2.8498480784694760e+01 7.1624041237548735e+00 0 0 0
34 1 2.2948689171693832e+01 3.0099435369734319e+01 5.5824182605369375e+00 0 0 0
35 2 2.6569558521384252e+01 2.9918532433081250e+01 4.0927570770026103e+00 0 0 0
36 3 2.6514660816845080e+01 2.9916330774628445e+01 7.2104310041209114e+00 0 0 0
37 1 8.1743399551733198e+00 1.1112148956278787e+00 5.6352216272551985e+00 0 1 0
38 2 1.1782716355974660e+01 9.5937561748550682e-01 4.1401829747310321e+00 0 1 0
39 3 1.1741009645801597e+01 9.5054136352231799e-01 7.2586062989032554e+00 0 1 0
40 1 1.0949147227932732e+01 2.5567737219596718e+00 5.6897019657718522e+00 0 1 0
41 2 1.4543470114493147e+01 2.4292049097049344e+00 4.1746310662378310e+00 0 1 0
42 3 1.4522999899316241e+01 2.4193592109668001e+00 7.2935008216873864e+00 0 1 0
43 2 4.2155103200315402e+01 1.6861616040008013e+01 4.1953897545533314e+00 -1 0 0
44 3 4.2167899946830303e+01 1.6858728707341712e+01 7.3138984532937812e+00 -1 0 0
45 2 4.4878343725598285e+01 1.8298509625412279e+01 4.1746705949990757e+00 -1 0 0
46 3 4.4893636307204545e+01 1.8318612988918236e+01 7.2932674705830607e+00 -1 0 0
47 1 4.4061091652735350e+01 1.9914003131436377e+01 5.7296505427608206e+00 -1 0 0
48 2 1.2497253845117443e+01 1.9727127696292150e+01 4.1401829759758995e+00 0 0 0
49 3 1.2510456512976640e+01 1.9767663893057552e+01 7.2586063001166741e+00 0 0 0
50 1 4.6797886220089040e+01 2.1353134427719962e+01 5.6846432786584824e+00 -1 0 0
51 2 1.5250938987547240e+01 2.1144559814287071e+01 4.1004512980346277e+00 0 0 0
52 3 1.5254883418860844e+01 2.1198293562984841e+01 7.2183929746166147e+00 0 0 0
53 1 1.4432938718915139e+01 2.2776153687025559e+01 5.6352216283643637e+00 0 0 0
54 2 1.8026066253896328e+01 2.2553247683103397e+01 4.0686396357431516e+00 0 0 0
55 3 1.8012720076333103e+01 2.2609154251012026e+01 7.1860551249619586e+00 0 0 0
56 1 1.7199921523894250e+01 2.4184507320074960e+01 5.5963784663757350e+00 0 0 0
57 2 2.0816951448194526e+01 2.3959866860167679e+01 4.0576971930989796e+00 0 0 0
58 3 2.0782245242034200e+01 2.4007081395880540e+01 7.1748133443234812e+00 0 0 0
59 1 1.9980499665830802e+01 2.5585537237725159e+01 5.5823277217001648e+00 0 0 0
60 2 2.3612284918969319e+01 2.5372962750142683e+01 4.0726315143438390e+00 0 0 0
61 3 2.3560708515515547e+01 2.5405323164743766e+01 7.1897937851805942e+00 0 0 0
62 1 2.2768261567610882e+01 2.6990228678719124e+01 5.5985050294332401e+00 0 0 0
63 2 2.6401139646577523e+01 2.6800775999513291e+01 4.1066826688341189e+00 0 0 0
64 3 2.6345225353144677e+01 2.6818557494195993e+01 7.2242641359132982e+00 0 0 0
65 1 2.5556342055801334e+01 2.8409820968950889e+01 5.6378302245550502e+00 0 0 0
66 2 2.9178260828925257e+01 2.8248693854438436e+01 4.1453497805643522e+00 0 0 0
67 3 2.9132578409371440e+01 2.8256573984512734e+01 7.2635193129926989e+00 0 0 0
68 1 2.8339772425442405e+01 2.9851591246711440e+01 5.6846432766546320e+00 0 0 0
69 2 3.1944926349995974e+01 2.9716531084908009e+01 4.1746705934893393e+00 0 0 0
70 3 3.1919870035284905e+01 2.9719723166246599e+01 7.2932674691203045e+00 0 0 0
71 1 1.3558825701561988e+01 9.0438828043064234e-01 5.7234054948893140e+00 0 1 0
72 2 1.7148355302809929e+01 7.8658279935158482e-01 4.1866534997435130e+00 0 1 0
73 3 1.7148199413274249e+01 7.8803036044299335e-01 7.3054191238236017e+00 0 1 0
74 1 1.6330133878985652e+01 2.3821176626376626e+00 5.7449571763517646e+00 0 1 0
75 2 1.9909961284111045e+01 2.2693602258360803e+00 4.1795217224756067e+00 0 1 0
76 3 1.9933845193887990e+01 2.2689186646893815e+00 7.2982864053769188e+00 0 1 0
77 2 3.9331224616059991e+01 1.2300307214174985e+01 4.1642396692515824e+00 -1 0 0
78 3 3.9329367606417470e+01 1.2255230370598346e+01 7.2823891762213959e+00 -1 0 0
79 2 4.2059298192650601e+01 1.3730910335589218e+01 4.1832014493536240e+00 -1 0 0
80 3 4.2058609630832471e+01 1.3706388166157305e+01 7.3017086422409641e+00 -1 0 0
81 1 4.1227499158111385e+01 1.5322963368255509e+01 5.7537035379058938e+00 -1 0 0
82 2 9.6647914005505253e+00 1.5166744470152807e+01 4.1866535001923966e+00 0 0 0
83 3 9.6661229706439080e+00 1.5166155692916529e+01 7.3054191242175648e+00 0 0 0
84 1 4.3951632990186134e+01 1.6771612469949140e+01 5.7464937572119643e+00 -1 0 0
85 2 1.2389786471754102e+01 1.6601330162057611e+01 4.1746310666443796e+00 0 0 0
86 3 1.2391494954823763e+01 1.6623980736990777e+01 7.2935008220501780e+00 0 0 0
87 1 1.1561578741560613e+01 1.8216465551429568e+01 5.7234054959485885e+00 0 0 0
88 2 1.5128647061814746e+01 1.8028752169433300e+01 4.1513491932935125e+00 0 0 0
89 3 1.5126770960613063e+01 1.8070007872459922e+01 7.2700487806739584e+00 0 0 0
90 1 1.4297425748189001e+01 1.9650320685157087e+01 5.6897019663293182e+00 0 0 0
91 2 1.7887550343743790e+01 1.9447094429861746e+01 4.1257724175816328e+00 0 0 0
92 3 1.7875842167277142e+01 1.9498054607209188e+01 7.2440606472065401e+00 0 0 0
93 1 1.7049629138567038e+01 2.1070287340898695e+01 5.6557522161900513e+00 0 0 0
94 2 2.0665772212675613e+01 2.0859676401642943e+01 4.1100668179124478e+00 0 0 0
95 3 2.0638531539851090e+01 2.0909291656136642e+01 7.2279441494779491e+00 0 0 0
96 1 1.9818904163383099e+01 2.2479616132218087e+01 5.6350522945706096e+00 0 0 0
97 2 2.3454926487706853e+01 2.2273735318800380e+01 4.1133416130559661e+00 0 0 0
98 3 2.3412071225193088e+01 2.2313421594488030e+01 7.2310257578673962e+00 0 0 0
99 1 2.2600659256398455e+01 2.3887232591708056e+01 5.6374073870402839e+00 0 0 0
100 2 2.6243206215724754e+01 2.3697888160407015e+01 4.1349655876458646e+00 0 0 0
101 3 2.6192881051040487e+01 2.3725162784518702e+01 7.2527346661784513e+00 0 0 0
102 1 2.5387640634645120e+01 2.5304758977140331e+01 5.6621264382131562e+00 0 0 0
103 2 2.9022176984361238e+01 2.5139202791544491e+01 4.1643608779912373e+00 0 0 0
104 3 2.8977376469046590e+01 2.5157141725384459e+01 7.2824237940114349e+00 0 0 0
105 1 2.8173419416923085e+01 2.6741709921896529e+01 5.6978722662079377e+00 0 0 0
106 2 3.1790202840750510e+01 2.6600103760237953e+01 4.1878022226065132e+00 0 0 0
107 3 3.1762525619454927e+01 2.6613672025094719e+01 7.3061596993960798e+00 0 0 0
108 1 3.0954493969691203e+01 2.8201023275011522e+01 5.7296505406018872e+00 0 0 0
109 2 3.4550932959172421e+01 2.8076582402741405e+01 4.1953897531678992e+00 0 0 0
110 3 3.4547035088847153e+01 2.8089108375928287e+01 7.3138984519579662e+00 0 0 0
111 1 3.3730613443036809e+01 2.9677424624287372e+01 5.7464937560750453e+00 0 0 0
112 2 3.7310106135828249e+01 2.9558965685926783e+01 4.1832014489790383e+00 0 0 0
113 3 3.7331687237931462e+01 2.9570630457611564e+01 7.3017086419198645e+00 0 0 0
114 1 1.8946208834290069e+01 7.4851274753798014e-01 5.7439985902278243e+00 0 1 0
115 2 2.2516069189685915e+01 6.2415684615249722e-01 4.1525109502204156e+00 0 1 0
116 3 2.2559829514914288e+01 6.3205167040516896e-01 7.2708150927270436e+00 0 1 0
117 1 2.1720154783035795e+01 2.2226195697330358e+00 5.7231091776366680e+00 0 1 0
118 2 2.5289891939511630e+01 2.0840252747293868e+00 4.1100668221682461e+00 0 1 0
119 3 2.5346480345921144e+01 2.0828087621827254e+00 7.2279441538092435e+00 0 1 0
120 2 3.9213988522383509e+01 9.1756946797187666e+00 4.1133416166291816e+00 -1 0 0
121 3 3.9201046832036127e+01 9.1187377959902491e+00 7.2310257614609146e+00 -1 0 0
122 1 3.8380322115215307e+01 1.0751845445598020e+01 5.6965100296857685e+00 -1 0 0
123 2 6.8402694534102704e+00 1.0599380862156641e+01 4.1525109494164694e+00 0 0 0
124 3 6.8252264099544435e+00 1.0557535895648233e+01 7.2708150918665417e+00 0 0 0
125 1 4.1120849833900998e+01 1.2184443663356145e+01 5.7268829821040681e+00 -1 0 0
126 2 9.5681113288148758e+00 1.2033734822791596e+01 4.1795217217804259e+00 0 0 0
127 3 9.5557869712233661e+00 1.2013271529649323e+01 7.2982864046262659e+00 0 0 0
128 1 8.7328950022016230e+00 1.3628792665566849e+01 5.7439985902419837e+00 0 0 0
129 2 1.2292317808219032e+01 1.3474177229881372e+01 4.1902656937212246e+00 0 0 0
130 3 1.2283895235870892e+01 1.3476260950765754e+01 7.3092897976917754e+00 0 0 0
131 1 1.1455675837155573e+01 1.5077577577335838e+01 5.7449571764454044e+00 0 0 0
132 2 1.5023524528426185e+01 1.4913318537037226e+01 4.1856745077105897e+00 0 0 0
133 3 1.5017416055840505e+01 1.4935231550153075e+01 7.3047641976659934e+00 0 0 0
134 1 1.4183286691825089e+01 1.6522058031791897e+01 5.7314577394504251e+00 0 0 0
135 2 1.7770262480679516e+01 1.6345147515359237e+01 4.1711206603864763e+00 0 0 0
136 3 1.7762046774960488e+01 1.6380478387789161e+01 7.2900443370762540e+00 0 0 0
137 1 1.6923837077882400e+01 1.7955580845795314e+01 5.7095326486587359e+00 0 0 0
138 2 2.0536087158189108e+01 1.7768439163157836e+01 4.1564398691962294e+00 0 0 0
139 3 2.0519583435781438e+01 1.7807707970989654e+01 7.2750425318484941e+00 0 0 0
140 1 1.9681407040008445e+01 1.9376681724691689e+01 5.6898223070335288e+00 0 0 0
141 2 2.3316966731223861e+01 1.9187409648621248e+01 4.1525109472444326e+00 0 0 0
142 3 2.3288249449136796e+01 1.9221359791103630e+01 7.2708150896941008e+00 0 0 0
143 1 2.2454484429484282e+01 2.0790547729669132e+01 5.6838112181883353e+00 0 0 0
144 2 2.6102302273012629e+01 2.0609899615871367e+01 4.1642396661763037e+00 0 0 0
145 3 2.6064193085843705e+01 2.0634046256647537e+01 7.2823891731457566e+00 0 0 0
146 1 2.5236746295169691e+01 2.2207636223070416e+01 5.6965100258555506e+00 0 0 0
147 2 2.8881134307471985e+01 2.2044129878978900e+01 4.1861873041830568e+00 0 0 0
148 3 2.8843213816441860e+01 2.2060408594020178e+01 7.3043341260535133e+00 0 0 0
149 1 2.8020611694164149e+01 2.3639126051550519e+01 5.7220244206039945e+00 0 0 0
150 2 3.1648312690348597e+01 2.3495123851746328e+01 4.2061214122930570e+00 0 0 0
151 3 3.1621952410674297e+01 2.3508896675613745e+01 7.3243493647487767e+00 0 0 0
152 1 3.0800804230373423e+01 2.5091233095901117e+01 5.7473242501814896e+00 0 0 0
153 2 3.4405410727503217e+01 2.4962072204165768e+01 4.2124850587290945e+00 0 0 0
154 3 3.4398936457983943e+01 2.4977951925848231e+01 7.3307978594195040e+00 0 0 0
155 1 3.3575786385542408e+01 2.6562108564318336e+01 5.7601324127067812e+00 0 0 0
156 2 3.7158008822369212e+01 2.6437953038501000e+01 4.1988482087852503e+00 0 0 0
157 3 3.7175199183248104e+01 2.6457380969014920e+01 7.3171729714256175e+00 0 0 0
158 1 3.6347247281406879e+01 2.8042580074571571e+01 5.7537035369184668e+00 0 0 0
159 2 3.9913081569342083e+01 2.7911686227564989e+01 4.1642396688764229e+00 0 0 0
160 3 3.9953047765657566e+01 2.7932616430945451e+01 7.2823891758861308e+00 0 0 0
161 1 3.9118609739316007e+01 2.9519478904287240e+01 5.7268829821341525e+00 0 0 0
162 2 4.2677693449239520e+01 2.9372463061216585e+01 4.1133416171433694e+00 0 0 0
163 3 4.2733490402662660e+01 2.9389733669059762e+01 7.2310257620161442e+00 0 0 0
164 1 2.4335668644000528e+01 5.6951939113800121e-01 5.6838112221528201e+00 0 1 0
165 2 2.7899146015746819e+01 4.0300499008346846e-01 4.0576971976233276e+00 0 1 0
166 3 2.7957388106648104e+01 4.0945417831930858e-01 7.1748133489065209e+00 0 1 0
167 1 2.7116234923352689e+01 2.0074646559596379e+00 5.6350522992501446e+00 0 1 0
168 2 3.0692869626317176e+01 1.8255165523940844e+00 4.0141434140410768e+00 0 1 0
169 3 3.0737638109818352e+01 1.8145672945637745e+00 7.1309001744545037e+00 0 1 0
170 2 3.6291226555413232e+01 4.6396419181474586e+00 4.0150470832053511e+00 -1 0 0
171 3 3.6285362807687306e+01 4.5925696791991522e+00 7.1317393099721365e+00 -1 0 0
172 2 3.9572079120182977e+00 6.0480755106732929e+00 4.0576971961061075e+00 0 0 0
173 3 3.9336720291165137e+00 5.9944117855432939e+00 7.1748133473512183e+00 0 0 0
174 1 3.8243792511753803e+01 7.6291289190138381e+00 5.6374073909300479e+00 -1 0 0
175 2 6.7176412229461064e+00 7.4672456823249389e+00 4.1100668200734578e+00 0 0 0
176 3 6.6882934898714641e+00 7.4188469399917105e+00 7.2279441516542882e+00 0 0 0
177 1 5.8831523013062688e+00 9.0508802378977844e+00 5.6838112209329426e+00 0 0 0
178 2 9.4595737274402012e+00 8.9005537504778491e+00 4.1564398702976701e+00 0 0 0
179 3 9.4338178044647076e+00 8.8666267038871052e+00 7.2750425329516561e+00 0 0 0
180 1 8.6225359830226598e+00 1.0489431595106648e+01 5.7231091764133692e+00 0 0 0
181 2 1.2191360558495800e+01 1.0345923648617910e+01 4.1873851072168629e+00 0 0 0
182 3 1.2173695660344999e+01 1.0330512729156869e+01 7.3064186703270861e+00 0 0 0
183 1 1.1352053603580314e+01 1.1939954440140545e+01 5.7470755297503828e+00 0 0 0
184 2 1.4923243240839836e+01 1.1796232655016837e+01 4.2003250218020369e+00 0 0 0
185 3 1.4913981537184446e+01 1.1798789880271636e+01 7.3195377510006141e+00 0 0 0
186 1 1.4080282532614660e+01 1.3393506615917065e+01 5.7539260981961879e+00 0 0 0
187 2 1.7664670741108633e+01 1.3242789425125482e+01 4.1978875157143865e+00 0 0 0
188 3 1.7660752623176744e+01 1.3259211987094721e+01 7.3170978889991263e+00 0 0 0
189 1 1.6816032606369784e+01 1.4840683330424783e+01 5.7466043431095128e+00 0 0 0
190 2 2.0421920791961394e+01 1.4679957420623696e+01 4.1873851071151265e+00 0 0 0
191 3 2.0417406992956199e+01 1.4702961131638320e+01 7.3064186702332865e+00 0 0 0
192 1 1.9565600694498585e+01 1.6275628424710998e+01 5.7326714616432124e+00 0 0 0
193 2 2.3195232760707551e+01 1.6107852307031884e+01 4.1795217211315601e+00 0 0 0
194 3 2.3183673207618856e+01 1.6128757161734043e+01 7.2982864039931235e+00 0 0 0
195 1 2.2330614607537125e+01 1.7698896192201943e+01 5.7231091750816105e+00 0 0 0
196 2 2.5977204129403724e+01 1.7532017035262797e+01 4.1832014478811006e+00 0 0 0
197 3 2.5956311588300984e+01 1.7544874433637741e+01 7.3017086407862699e+00 0 0 0
198 1 2.5107148884462905e+01 1.9117970490814059e+01 5.7268829797857004e+00 0 0 0
199 2 2.8756129025081972e+01 1.8960803222889524e+01 4.1988482079049687e+00 0 0 0
200 3 2.8730708761991608e+01 1.8965976548383523e+01 7.3171729705238304e+00 0 0 0
201 1 2.7887554419319752e+01 2.0544301019193501e+01 5.7441326061029629e+00 0 0 0
202 2 3.1523253130264326e+01 2.0401326021024168e+01 4.2174349032193259e+00 0 0 0
203 3 3.1502837577035510e+01 2.0404488788817108e+01 7.3356690194383916e+00 0 0 0
204 1 3.0664777102652771e+01 2.1987140936881985e+01 5.7652877743350528e+00 0 0 0
205 2 3.4277022374977605e+01 2.1856066989962567e+01 4.2266604664308822e+00 0 0 0
206 3 3.4270667357421132e+01 2.1863752264369943e+01 7.3448791127710509e+00 0 0 0
207 1 3.3435496854384951e+01 2.3448634791011742e+01 5.7775995157540088e+00 0 0 0
208 2 3.7021976106800871e+01 2.3321291870498452e+01 4.2174349040195871e+00 0 0 0
209 3 3.7034922918980030e+01 2.3337390874168733e+01 7.3356690202424257e+00 0 0 0
210 1 3.6200540395565952e+01 2.4922894807360759e+01 5.7717638991975022e+00 0 0 0
211 2 3.9765745394251041e+01 2.4788031962717117e+01 4.1861873065378017e+00 0 0 0
212 3 3.9798803419185546e+01 2.4812732713325548e+01 7.3043341284209431e+00 0 0 0
213 1 3.8963645443103395e+01 2.6398411815398536e+01 5.7441326081559678e+00 0 0 0
214 2 4.2516906124598961e+01 2.6245665564338314e+01 4.1349655912627377e+00 0 0 0
215 3 4.2565689223709938e+01 2.6275611122816727e+01 7.2527346698274169e+00 0 0 0
216 1 4.1729540048218929e+01 2.7862411391009726e+01 5.6965100294886453e+00 0 0 0
217 2 4.5283023921443146e+01 2.7686572949651119e+01 4.0726315184458883e+00 0 0 0
218 3 4.5336837064844843e+01 2.7715059217508220e+01 7.1897937893205563e+00 0 0 0
219 1 4.4502156692112074e+01 2.9305531550748242e+01 5.6374073915135368e+00 0 0 0
220 2 4.8067411357485845e+01 2.9109303333045183e+01 4.0150470832600655e+00 0 0 0
221 3 4.8111108987028629e+01 2.9127761295879790e+01 7.1317393100319650e+00 0 0 0
222 1 2.9725243752607827e+01 3.1455829579400996e-01 5.5823277258215915e+00 0 1 0
223 1 3.2512378594760548e+01 1.7168686863492908e+00 5.5490962660976697e+00 0 1 0
224 1 3.5300606865517906e+01 3.1118238053031573e+00 5.5493787707305442e+00 -1 0 0
225 2 3.7922772558053541e+00 2.9173841129418663e+00 4.0141434115688197e+00 0 0 0
226 3 3.7604106806462649e+00 2.8840880972552001e+00 7.1309001719552745e+00 0 0 0
227 1 2.9675619589895512e+00 4.5108518284416164e+00 5.5823277243845206e+00 0 0 0
228 2 6.5708184497859410e+00 4.3344076227720132e+00 4.0686396368796487e+00 0 0 0
229 3 6.5290750316446635e+00 4.2948962085561559e+00 7.1860551261135015e+00 0 0 0
230 1 5.7381662893985546e+00 5.9238665720580990e+00 5.6350522967779328e+00 0 0 0
231 2 9.3300840298302141e+00 5.7675259528218916e+00 4.1257724183831330e+00 0 0 0
232 3 9.2918053106847562e+00 5.7319062851701545e+00 7.2440606480226419e+00 0 0 0
233 1 8.4941348737417037e+00 7.3562577749254032e+00 5.6898223084401538e+00 0 0 0
234 2 1.2075092790131446e+01 7.2169251413290159e+00 4.1711206608081817e+00 0 0 0
235 3 1.2048603210220191e+01 7.1921446951743535e+00 7.2900443375087480e+00 0 0 0
236 1 1.1237628982193790e+01 8.8064931883925635e+00 5.7326714621879669e+00 0 0 0
237 2 1.4814609577425069e+01 8.6766590576219276e+00 4.1978875158481275e+00 0 0 0
238 3 1.4802346280287741e+01 8.6650545874198190e+00 7.3170978891396485e+00 0 0 0
239 1 1.3974865668159296e+01 1.0266674459877695e+01 5.7572842591464113e+00 0 0 0
240 2 1.7557768457634580e+01 1.0136982451340060e+01 4.2059752742114842e+00 0 0 0
241 3 1.7557768457017055e+01 1.0136982451551646e+01 7.3252497701832633e+00 0 0 0
242 1 1.6713782119473048e+01 1.1725979846391533e+01 5.7638093623533724e+00 0 0 0
243 2 2.0311983893634562e+01 1.1588923114398366e+01 4.2003250224923780e+00 0 0 0
244 3 2.0318829366576299e+01 1.1595665372852007e+01 7.3195377517040416e+00 0 0 0
245 1 1.9461536426208525e+01 1.3175021282538649e+01 5.7572842593235523e+00 0 0 0
246 2 2.3080589237989148e+01 1.3028399087562589e+01 4.1902656944705567e+00 0 0 0
247 3 2.3086605078799543e+01 1.3034651389858137e+01 7.3092897984647340e+00 0 0 0
248 1 2.2222045429146796e+01 1.4609803170340266e+01 5.7470755297890719e+00 0 0 0
249 2 2.5860158670140027e+01 1.4457620085953945e+01 4.1866535004046836e+00 0 0 0
250 3 2.5858982988674519e+01 1.4456761302620752e+01 7.3054191244581661e+00 0 0 0
251 1 2.4994201536425280e+01 1.6033641943346087e+01 5.7439985896085615e+00 0 0 0
252 2 2.8640572298200517e+01 1.5883694613556635e+01 4.1953897540980485e+00 0 0 0
253 3 2.8631673420992438e+01 1.5874055973876281e+01 7.3138984528651712e+00 0 0 0
254 1 2.7771862017284761e+01 1.7456349614836121e+01 5.7537035365600113e+00 0 0 0
255 2 3.1410578366949633e+01 1.7314923764988411e+01 4.2124850596683263e+00 0 0 0
256 3 3.1400063258294189e+01 1.7301377023961251e+01 7.3307978603441422e+00 0 0 0
257 1 3.0546942154278593e+01 1.8889140359945454e+01 5.7717638989453732e+00 0 0 0
258 2 3.4164651963847326e+01 1.8756738799117031e+01 4.2266604670887435e+00 0 0 0
259 3 3.4161173829137915e+01 1.8747392556859705e+01 7.3448791134218743e+00 0 0 0
260 1 3.3313932929184553e+01 2.0338275828581331e+01 5.7865210819739756e+00 0 0 0
261 2 3.6904934118498069e+01 2.0209087265870330e+01 4.2266604672617891e+00 0 0 0
262 3 3.6914767268895844e+01 2.0210748235289135e+01 7.3448791135918166e+00 0 0 0
263 1 3.6072033136516886e+01 2.1802042771773770e+01 5.7865210823127207e+00 0 0 0
264 2 3.9638753843220726e+01 2.1666088201620330e+01 4.2061214142946834e+00 0 0 0
265 3 3.9663861597464837e+01 2.1682030461139870e+01 7.3243493667355999e+00 0 0 0
266 1 3.8824570123065484e+01 2.3271846462398639e+01 5.7652877761250947e+00 0 0 0
267 2 4.2375635825171663e+01 2.3118348968092025e+01 4.1643608809737511e+00 0 0 0
268 3 4.2413571654946317e+01 2.3148177884908392e+01 7.2824237969887227e+00 0 0 0
269 1 4.1577313905023139e+01 2.4735768321791962e+01 5.7220244237249656e+00 0 0 0
270 2 4.5125119103094043e+01 2.4557447284464633e+01 4.1066826722163006e+00 0 0 0
271 3 4.5168475476559180e+01 2.4596979734986569e+01 7.2242641393034583e+00 0 0 0
272 1 4.4336279863062337e+01 2.6183171685631009e+01 5.6621264421045270e+00 0 0 0
273 1 4.7105628976482841e+01 2.7608885650714488e+01 5.5985050330734847e+00 0 0 0
274 1 5.5711785297606289e+00 2.8033154798321820e+00 5.5963784669540733e+00 0 0 0
275 2 9.1783415630228458e+00 2.6354208459511947e+00 4.1004512976484273e+00 0 0 0
276 3 9.1298345564637184e+00 2.6119699478244116e+00 7.2183929742477604e+00 0 0 0
277 1 8.3433183370074229e+00 4.2302684464864084e+00 5.6557522167443919e+00 0 0 0
278 2 1.1937856099432048e+01 4.0874167543283937e+00 4.1513491932357205e+00 0 0 0
279 3 1.1903065663283909e+01 4.0651641506125129e+00 7.2700487806416376e+00 0 0 0
280 1 1.1103629316880889e+01 5.6786825744664133e+00 5.7095326490785832e+00 0 0 0
281 2 1.4688462035344950e+01 5.5540947863124908e+00 4.1856745079787023e+00 0 0 0
282 3 1.4672539045293913e+01 5.5378481869726279e+00 7.3047641979624336e+00 0 0 0
283 1 1.3855111930533196e+01 7.1427699216030618e+00 5.7466043434092740e+00 0 0 0
284 2 1.7438078238580658e+01 7.0257915849460950e+00 4.2003250224367825e+00 0 0 0
285 3 1.7440494467626827e+01 7.0164921018099022e+00 7.3195377516592872e+00 0 0 0
286 1 1.6603649515924765e+01 8.6115701447709405e+00 5.7638093626300506e+00 0 0 0
287 2 2.0194025054594871e+01 8.4914988717102364e+00 4.1978875169279579e+00 0 0 0
288 3 2.0210206468009410e+01 8.4866807805010751e+00 7.3170978902341561e+00 0 0 0
289 1 1.9355873736829565e+01 1.0073397363525940e+01 5.7638093630244223e+00 0 0 0
290 2 2.2961318809682815e+01 9.9435340317981620e+00 4.1856745096003243e+00 0 0 0
291 3 2.2983350271018079e+01 9.9378676184559662e+00 7.3047641995885257e+00 0 0 0
292 1 2.2116744074283854e+01 1.1520311522740075e+01 5.7539260993803873e+00 0 0 0
293 2 2.5740048787512460e+01 1.1380412284112936e+01 4.1746310684411263e+00 0 0 0
294 3 2.5758810518786159e+01 1.1367607408265537e+01 7.2935008238869656e+00 0 0 0
295 1 2.4887495656727101e+01 1.2951252116143442e+01 5.7449571774332471e+00 0 0 0
296 2 2.8523338382483825e+01 1.2806852346839371e+01 4.1746705961453134e+00 0 0 0
297 3 2.8533102114942768e+01 1.2783556902491023e+01 7.2932674717688908e+00 0 0 0
298 1 2.7664362023805523e+01 1.4372855963438989e+01 5.7464937575347816e+00 0 0 0
299 2 3.1299605369569530e+01 1.4231071521166308e+01 4.1878022253718346e+00 0 0 0
300 3 3.1301693517203436e+01 1.4200318213576844e+01 7.3061597021538676e+00 0 0 0
301 1 3.0439718401893678e+01 1.5796429830080109e+01 5.7601324143094494e+00 0 0 0
302 2 3.4059541924149364e+01 1.5660681002476082e+01 4.2061214147143033e+00 0 0 0
303 3 3.4060794448177127e+01 1.5630965920373479e+01 7.3243493671610160e+00 0 0 0
304 1 3.3206210549974863e+01 1.7231672420764216e+01 5.7775995171478840e+00 0 0 0
305 2 3.6801379220421900e+01 1.7099275163827436e+01 4.2174349048973356e+00 0 0 0
306 3 3.6808847959818770e+01 1.7080013393795809e+01 7.3356690211036968e+00 0 0 0
307 1 3.5960642390011174e+01 1.8681574456552102e+01 5.7865210828501557e+00 0 0 0
308 2 3.9530619363065185e+01 1.8544897086422967e+01 4.2124850603311108e+00 0 0 0
309 3 3.9547608739762858e+01 1.8542564107045546e+01 7.3307978609895423e+00 0 0 0
310 1 3.8704901051652612e+01 2.0141585845395632e+01 5.7775995173040560e+00 0 0 0
311 2 4.2256800247653231e+01 1.9990717775241187e+01 4.1878022248487952e+00 0 0 0
312 3 4.2282389320389655e+01 2.0007902818860838e+01 7.3061597016030193e+00 0 0 0
313 1 4.1444779225828384e+01 2.1601997437266768e+01 5.7473242526983848e+00 0 0 0
314 1 4.4187826493699056e+01 2.3052141019492872e+01 5.6978722692968500e+00 0 0 0
315 1 1.3715371683266739e+01 4.0220577267891597e+00 5.7314577394248927e+00 0 0 0
316 2 1.7300398327117907e+01 3.9083710376011136e+00 4.1902656941649639e+00 0 0 0
317 3 1.7302805057420986e+01 3.9000350148894425e+00 7.3092897981808722e+00 0 0 0
318 1 1.6476278765663757e+01 5.4971292166621346e+00 5.7539260987045671e+00 0 0 0
319 2 2.0060024022947115e+01 5.3850662858319254e+00 4.1873851085417018e+00 0 0 0
320 3 2.0082202718789667e+01 5.3774734947288216e+00 7.3064186716928843e+00 0 0 0
321 1 1.9236903278084384e+01 6.9692516126467989e+00 5.7572842602261707e+00 0 0 0
322 2 2.2827950103018932e+01 6.8488746991227485e+00 4.1711206630569402e+00 0 0 0
323 3 2.2862655387603713e+01 6.8383242731468767e+00 7.2900443397941856e+00 0 0 0
324 1 2.2002160835907212e+01 8.4274941035302806e+00 5.7466043451299731e+00 0 0 0
325 2 2.5606802213056316e+01 8.2947784330557131e+00 4.1513491963987308e+00 0 0 0
326 3 2.5643468749884757e+01 8.2757753338325326e+00 7.2700487838374839e+00 0 0 0
327 1 2.4774646998210674e+01 9.8668315978514709e+00 5.7314577418375325e+00 0 0 0
328 2 2.8393335173495956e+01 9.7244440436949553e+00 4.1401829786421835e+00 0 0 0
329 3 2.8421839215734540e+01 9.6927421009163997e+00 7.2586063028420282e+00 0 0 0
330 1 2.7552900930439048e+01 1.1290093525311036e+01 5.7234054979200346e+00 0 0 0
331 2 3.1177855473432345e+01 1.1144768339299791e+01 4.1453497848267906e+00 0 0 0
332 3 3.1193872289603661e+01 1.1101266139491967e+01 7.2635193172766375e+00 0 0 0
333 1 3.0331022835141464e+01 1.2706866652022853e+01 5.7296505439596706e+00 0 0 0
334 2 3.3948795648989076e+01 1.2564341297995776e+01 4.1643608820247868e+00 0 0 0
335 3 3.3955660334022916e+01 1.2516573448037878e+01 7.2824237980570832e+00 0 0 0
336 1 3.3101025000807965e+01 1.4128662524957260e+01 5.7473242533853499e+00 0 0 0
337 2 3.6699728756378050e+01 1.3989731214993359e+01 4.1861873073978186e+00 0 0 0
338 3 3.6704591221482318e+01 1.3948751750365007e+01 7.3043341292656887e+00 0 0 0
339 1 3.5857261230708438e+01 1.5562905658311466e+01 5.7652877768790276e+00 0 0 0
340 2 3.9432470610286892e+01 1.5423136794765400e+01 4.1988482098640798e+00 0 0 0
341 3 3.9440700511324032e+01 1.5398535539806895e+01 7.3171729724662127e+00 0 0 0
342 1 3.8599125906361650e+01 1.7009857890004330e+01 5.7717639004487333e+00 0 0 0
343 1 4.1331103669150636e+01 1.8463354663181402e+01 5.7601324145279671e+00 0 0 0
344 1 1.9099206340074939e+01 3.8611897453409405e+00 5.7470755306498553e+00 0 0 0
345 2 2.2677644488548168e+01 3.7419544429600129e+00 4.1564398722155751e+00 0 0 0
346 3 2.2719904133337966e+01 3.7366126818783321e+00 7.2750425349264960e+00 0 0 0
347 1 2.1870075696584038e+01 5.3288257431819446e+00 5.7326714641259846e+00 0 0 0
348 2 2.5455671001261635e+01 5.1963269752565138e+00 4.1257724215357054e+00 0 0 0
349 3 2.5505657896896405e+01 5.1809864653366491e+00 7.2440606512343635e+00 0 0 0
350 1 2.4645838979236562e+01 6.7766839369802776e+00 5.7095326520738370e+00 0 0 0
351 2 2.8244024824750735e+01 6.6309666988730074e+00 4.1004513018847177e+00 0 0 0
352 3 2.8288587400699015e+01 6.6006838477437366e+00 7.2183929785402539e+00 0 0 0
353 1 2.7426732398467703e+01 8.2038529511037233e+00 5.6897019697196756e+00 0 0 0
354 2 3.1036083998378707e+01 8.0506465817599473e+00 4.0927570819317394e+00 0 0 0
355 3 3.1065439542351783e+01 8.0042046043311874e+00 7.2104310090980439e+00 0 0 0
356 1 3.0208949813399702e+01 9.6171673854058799e+00 5.6846432812313248e+00 0 0 0
357 2 3.3820349709834900e+01 9.4636697760793229e+00 4.1066826738303863e+00 0 0 0
358 3 3.3832907630566829e+01 9.4063558306463726e+00 7.2242641409472732e+00 0 0 0
359 1 3.2985362547918548e+01 1.1028042118277970e+01 5.6978722708536544e+00 0 0 0
360 2 3.6586496118714308e+01 1.0878339334112743e+01 4.1349655919847521e+00 0 0 0
361 3 3.6588038184399117e+01 1.0821119151786890e+01 7.2527346705393976e+00 0 0 0
362 1 3.5748682858628079e+01 1.2446998685637128e+01 5.7220244246458600e+00 0 0 0
363 1 3.8495408594698368e+01 1.3879180223586820e+01 5.7441326089700295e+00 0 0 0
364 1 2.4497763460858383e+01 3.6780078585416587e+00 5.6898223109750941e+00 0 0 0
365 2 2.8076420672126549e+01 3.5232920545655402e+00 4.0686396402251725e+00 0 0 0
366 3 2.8131510269306361e+01 3.5068968998152190e+00 7.1860551295160766e+00 0 0 0