LAMMPS data file via write_data, version 30 Mar 2018, timestep = 1285

28 atoms
2 atom types

0.0000000000000000e+00 6.5085478085000004e+00 xlo xhi
0.0000000000000000e+00 5.6365681105999998e+00 ylo yhi
0.0000000000000000e+00 1.0000000000000000e+02 zlo zhi
3.2542732692000000e+00 0.0000000000000000e+00 0.0000000000000000e+00 xy xz yz

Masses

1 12.011
2 12.011

Atoms # atomic

1 1 5.1140451501153841e+00 2.6880663268928573e-01 9.9917940006853840e+01 -1 1 -1
2 1 9.3004592861599744e-01 1.0732718591343904e+00 9.9917940007178842e+01 0 1 -1
3 1 3.2542744956903800e+00 1.8788558364047605e+00 9.9923996772586705e+01 0 1 -1
4 1 7.9029900081023019e+00 3.4893777833267454e+00 9.9921698650539653e+01 -1 0 -1
5 1 7.4382024642361326e+00 4.8317310967196549e+00 9.9922380944793218e+01 -1 0 -1
6 1 3.7187324080781909e+00 4.2944890177103998e+00 9.9917940005771015e+01 0 0 -1
7 1 3.2542740687871543e+00 5.6365678334782912e+00 9.9914890324741066e+01 0 0 -1
8 1 6.0437112653591321e+00 5.0995010104756391e+00 9.9921698651432720e+01 0 0 -1
9 1 2.3245482805025781e+00 8.0493854719192526e-01 9.9920330573295089e+01 0 1 -1
10 1 4.6491772158413207e+00 1.6106476912029748e+00 9.9920330572335644e+01 0 1 -1
11 1 6.9738490725572309e+00 2.4155977674605507e+00 9.9922380943988770e+01 -1 0 -1
12 1 2.7890979797625093e+00 3.2209810410459689e+00 9.9920330571957038e+01 0 0 -1
13 1 5.5789432907388496e+00 2.6842568256942898e+00 9.9921698650642128e+01 0 0 -1
14 1 5.1135930165896744e+00 4.0258065265688794e+00 9.9922380944443347e+01 0 0 -1
15 2 6.5085481371184368e+00 3.7577118644358989e+00 3.3760032267132969e+00 -1 0 0
16 2 8.3683184283992702e+00 5.3677610686598465e+00 3.3820599924847041e+00 -1 0 0
17 2 6.9730065937699059e+00 1.3420786829576179e+00 3.3820599921600372e+00 -1 1 0
18 2 6.0433719954740379e+00 2.4155865479965941e+00 3.3796694268775149e+00 -1 0 0
19 2 2.3246693057278822e+00 2.9523108752738052e+00 3.3783013480396686e+00 0 0 0
20 2 7.9034508685002240e+00 4.0259198978994135e+00 3.3796694262678764e+00 -1 0 0
21 2 4.1843193888969878e+00 4.5632958421173093e+00 3.3820599934515605e+00 0 0 0
22 2 3.2542740892932165e+00 5.6365678660560024e+00 3.3851096745589246e+00 0 0 0
23 2 2.7894378243453684e+00 5.3706669008936281e-01 3.3783013486699849e+00 0 1 0
24 2 1.8593194050949002e+00 1.6107610623693005e+00 3.3776190542015332e+00 0 1 0
25 2 4.6487162040605945e+00 2.1471899176341069e+00 3.3783013485758731e+00 0 0 0
26 2 3.7195750987867413e+00 3.2209698224597179e+00 3.3776190550612610e+00 0 0 0
27 2 5.5788217517682881e+00 4.8316290420587915e+00 3.3796694271668231e+00 0 0 0
28 2 4.1839290337872406e+00 8.0483649318849515e-01 3.3776190554118681e+00 0 1 0

Velocities

1 -2.6350735264315514e-05 -1.4625552753587282e-04 -7.2057804931676656e-05
2 -1.1359483545678337e-04 9.5979666450147398e-05 -7.2057728249281860e-05
3 3.6508951523043051e-08 -1.3110881962294664e-07 -7.5605759568124075e-05
4 2.1407042865908605e-04 2.7101919452580671e-04 -7.4206974910671331e-05
5 3.2150492128507651e-04 -9.1539279246584507e-05 -7.4968710609969350e-05
6 1.3979228373566587e-04 5.0261025237418016e-05 -7.2057852149572834e-05
7 1.1490173762242107e-08 3.7494197769085453e-08 -7.0765471637951625e-05
8 -3.4167093058554691e-04 4.9872224127751826e-05 -7.4207274477545675e-05
9 1.1460936292436724e-04 -1.2806261926913128e-04 -7.3105897614014935e-05
10 5.3591244156301780e-05 1.6315548602111263e-04 -7.3106318889294475e-05
11 -2.4006161410521180e-04 -2.3274028475945581e-04 -7.4968819114418456e-05
12 -1.6819858122173723e-04 -3.4995204913027924e-05 -7.3106571697741760e-05
13 1.2771638430276745e-04 -3.2075167614004920e-04 -7.4206915368662922e-05
14 -8.1460585194959720e-05 3.2414627741265679e-04 -7.4968409868334508e-05
15 -1.5189057605866012e-07 -7.0812483103302700e-08 7.5605892372812043e-05
16 -2.6295202456326926e-05 1.4609556727362920e-04 7.2057894265124305e-05
17 1.3973523748234202e-04 -5.0425589887279234e-05 7.2057997454626346e-05
18 -1.6806283162093386e-04 3.5233663310785997e-05 7.3105984727054698e-05
19 1.2759667697459471e-04 3.2073067955261587e-04 7.4206935025357109e-05
20 5.3784321689905046e-05 -1.6307508634839119e-04 7.3106531207416909e-05
21 -1.1324335387768424e-04 -9.5923788834143090e-05 7.2057481463490500e-05
22 -4.7338802793377282e-08 1.5353991937362868e-07 7.0765558760582946e-05
23 -3.4146728062169930e-04 -4.9576122687282196e-05 7.4206668543381151e-05
24 -8.1344839630301591e-05 -3.2414622979471384e-04 7.4968678106343204e-05
25 2.1384777091890480e-04 -2.7082631088817360e-04 7.4206969180988950e-05
26 -2.3988752829910495e-04 2.3249727827068904e-04 7.4968738717848480e-05
27 1.1428679576869382e-04 1.2781021330379012e-04 7.3106561690746731e-05
28 3.2125412069175600e-04 9.1527332004438908e-05 7.4968617571381029e-05
