LAMMPS data file via write_data, version 30 Mar 2018, timestep = 732

42 atoms
6 atom types

0.0000000000000000e+00 8.2442209999999996e+00 xlo xhi
0.0000000000000000e+00 7.1397050000000002e+00 ylo yhi
0.0000000000000000e+00 1.0000000000000000e+02 zlo zhi
4.1221100000000002e+00 0.0000000000000000e+00 0.0000000000000000e+00 xy xz yz

Masses

1 95.94
2 32.066
3 32.066
4 95.94
5 32.066
6 32.066

Atoms # atomic

1 2 6.4785280518622868e+00 3.3696543574684296e-01 4.1000923727231111e+00 -1 1 0
2 3 6.4722683232703186e+00 3.3529074485735638e-01 7.2198476434204588e+00 -1 1 0
3 2 1.1746525568642230e+00 1.3605501985137873e+00 4.1000923795997739e+00 0 1 0
4 3 1.1763320915892543e+00 1.3668085975502398e+00 7.2198476734597801e+00 0 1 0
5 2 4.1220736486609795e+00 2.3798548172937726e+00 4.0960058311374601e+00 0 1 0
6 3 4.1220736395909743e+00 2.3798548537057500e+00 7.2037174268353610e+00 0 1 0
7 2 1.0010153686242999e+01 4.4224863155525806e+00 4.0991758341756492e+00 -1 0 0
8 3 1.0015374027920686e+01 4.4266695367087623e+00 7.2194352040184082e+00 -1 0 0
9 1 9.4177957898084870e+00 6.1208003051549884e+00 5.6595748077380481e+00 -1 0 0
10 2 4.7130403766530913e+00 5.4420488032454823e+00 4.1000923728783274e+00 0 0 0
11 3 4.7176205662614112e+00 5.4374650766190635e+00 7.2198476441417556e+00 0 0 0
12 1 1.2366294314754512e+01 7.1396581097022471e+00 5.6618424215874121e+00 -1 0 0
13 2 7.6532835559416572e+00 6.4577662047250435e+00 4.0991758379181196e+00 0 0 0
14 3 7.6470506256196131e+00 6.4601955465354095e+00 7.2194352072957653e+00 0 0 0
15 1 2.9413402550692052e+00 1.0191934188862795e+00 5.6555857169673658e+00 0 1 0
16 1 5.8908076790506687e+00 2.0376402290675868e+00 5.6555857023640081e+00 0 1 0
17 1 8.8360766953342491e+00 3.0628567444455470e+00 5.6595748129788213e+00 -1 0 0
18 1 3.5340730003808480e+00 4.0827306946204622e+00 5.6555857033638617e+00 0 0 0
19 2 7.0691147352449688e+00 3.3990169152001908e+00 4.0991758348548766e+00 0 0 0
20 3 7.0701273379533482e+00 3.3924043331790674e+00 7.2194351810674933e+00 0 0 0
21 1 6.4786794825113603e+00 5.0956122530438996e+00 5.6595748084642610e+00 0 0 0
22 5 7.0678162728506928e+00 1.3668072461834064e+00 1.0459199256718739e+01 -1 1 0
23 6 7.0694958030740693e+00 1.3605488243008312e+00 1.3578954528140411e+01 -1 1 0
24 4 7.6522923847415942e+00 3.0628554483308514e+00 1.2019472170096579e+01 -1 0 0
25 5 9.4182417435290056e+00 3.3924029868826020e+00 1.0459611696198426e+01 -1 0 0
26 6 9.4192543363100683e+00 3.3990155352152653e+00 1.3579871063635732e+01 -1 0 0
27 4 1.0009689305864681e+01 5.0956109355697210e+00 1.2019472170928708e+01 -1 0 0
28 5 3.5265272126365832e+00 5.4374636743537987e+00 1.0459199259985537e+01 0 0 0
29 6 3.5311074017616977e+00 5.4420474141719906e+00 1.3578954528849355e+01 0 0 0
30 4 1.2366295182012919e+01 7.1396567854094073e+00 1.2017204556762726e+01 -1 0 0
31 5 1.7718801356613512e+00 3.3528938416333876e-01 1.0459199228687741e+01 0 1 0
32 6 1.7656204345233990e+00 3.3696406148893615e-01 1.3578954521848152e+01 0 1 0
33 4 2.3533405241471677e+00 2.0376389088090683e+00 1.2023461263921527e+01 0 1 0
34 5 4.1220745745426237e+00 2.3798533961433339e+00 1.0475329471855950e+01 0 1 0
35 6 4.1220745454622598e+00 2.3798534197950798e+00 1.3583041071529530e+01 0 1 0
36 4 4.7100749151243821e+00 4.0827293483197540e+00 1.2023461278523188e+01 0 0 0
37 5 6.4729948621966162e+00 4.4266681740494267e+00 1.0459611720900458e+01 0 0 0
38 6 6.4782152252669452e+00 4.4224849436423508e+00 1.3579871066707497e+01 0 0 0
39 4 7.0705728410018187e+00 6.1207990045279468e+00 1.2019472165515424e+01 0 0 0
40 5 8.8413180166087262e+00 6.4601941531241067e+00 1.0459611696295168e+01 0 0 0
41 6 8.8350850723664198e+00 6.4577648151916778e+00 1.3579871066878596e+01 0 0 0
42 4 5.3028081141010484e+00 1.0191920844084952e+00 1.2023461276358908e+01 0 1 0

Velocities

1 -2.4257312760720732e-07 1.8660977019096251e-06 -1.0977910023837094e-05
2 2.0037660927706996e-06 2.3409152939548113e-06 -6.9029569977094269e-06
3 1.7425555374810012e-06 -7.2559348863021779e-07 -1.0977940154717354e-05
4 1.0306139781120798e-06 -2.9082737286357246e-06 -6.9031098945895025e-06
5 1.8841997502966941e-09 -2.8644818231514893e-09 -9.5669181109406865e-06
6 1.9197977515720088e-09 -3.0225153713322007e-09 1.0899982620871181e-05
7 -2.8257532778621463e-07 -1.3337332528824649e-06 -1.0253225765352273e-05
8 -2.4154702406206685e-06 -3.7241733632400067e-06 -6.0529557775630282e-06
9 1.1096396713373086e-06 -2.5819048997211074e-07 -1.0265225203710636e-04
10 -1.4945262029856539e-06 -1.1489980136597557e-06 -1.0977913881065795e-05
11 -3.0289048383182217e-06 5.5892149484961851e-07 -6.9029614094567895e-06
12 1.8002152238681242e-09 -2.7736563248863282e-09 -1.0356090690401532e-04
13 1.2966510129247395e-06 4.1626643546726270e-07 -1.0253243823037605e-05
14 4.4332037588698135e-06 -2.3566234874157520e-07 -6.0529751835599529e-06
15 4.7992336458421016e-07 -4.7734126614171216e-07 -1.0285887720387753e-04
16 1.7375609735838458e-07 6.4860211747049311e-07 -1.0285882269677280e-04
17 -7.7339236617709810e-07 -8.3440518341399631e-07 -1.0265227336117868e-04
18 -6.4825487158167096e-07 -1.7964779552816201e-07 -1.0285882284071943e-04
19 -1.0085809249702574e-06 9.0897430305273062e-07 -1.0253233857837031e-05
20 -2.0123014436994968e-06 3.9514251519954529e-06 -6.0528383627462376e-06
21 -3.3096184409352224e-07 1.0843903384277282e-06 -1.0265226060428645e-04
22 -1.1141368615660258e-06 -2.8935280814900221e-06 -6.8996364455200155e-06
23 -1.8288788889482185e-06 -7.4248055481898489e-07 -3.0736008017174373e-06
24 7.4792206976298809e-07 -8.0878062835423153e-07 1.1404995318020159e-04
25 2.1054616301916996e-06 4.1402847527644885e-06 -7.8358835536709032e-06
26 1.0805994475884000e-06 8.9257940309421830e-07 -3.8284576580640401e-06
27 3.2616428991004118e-07 1.0577913472613399e-06 1.1404994239431012e-04
28 3.0626405200220565e-06 4.8783223420916616e-07 -6.8996581592080581e-06
29 1.5571439951961317e-06 -1.2067440731141065e-06 -3.0736078828769774e-06
30 -1.7881412305362069e-09 2.7813648821923250e-09 1.1491920162035929e-04
31 -1.9539455330611921e-06 2.4141575623126285e-06 -6.8994949045581421e-06
32 2.6623530382015478e-07 1.9576865828658825e-06 -3.0735765901855270e-06
33 -3.2834317605041108e-07 5.8129268646085950e-07 1.1454799529829114e-04
34 -1.9665613269912180e-09 2.9947564769429879e-09 -2.6197482878113790e-05
35 -1.8363703544156827e-09 2.8942250184489118e-09 -4.4607700224935233e-06
36 6.6252982041919203e-07 -3.6681152428150146e-09 1.1454793912185941e-04
37 2.5277516456364220e-06 -3.8910092350743799e-06 -7.8360156862626111e-06
38 2.2747732803590612e-07 -1.3794992466114050e-06 -3.8284688323790857e-06
39 -1.0793937942953273e-06 -2.4081865200631282e-07 1.1404996357687213e-04
40 -4.6386471022568466e-06 -2.4086304653039661e-07 -7.8358877681507341e-06
41 -1.3135591220666792e-06 4.9541621061068470e-07 -3.8284754437477868e-06
42 -3.3960215978274907e-07 -5.6923239953275216e-07 1.1454794526169186e-04
