LAMMPS data file via write_data, version 30 Mar 2018, timestep = 1796

508 atoms
2 atom types

0.0000000000000000e+00 2.7722791854699999e+01 xlo xhi
0.0000000000000000e+00 2.4008642419400001e+01 ylo yhi
0.0000000000000000e+00 1.0000000000000000e+02 zlo zhi
1.3861395218300000e+01 0.0000000000000000e+00 0.0000000000000000e+00 xy xz yz

Masses

1 12.011
2 12.011

Atoms # atomic

1 1 2.6304096907132671e+01 6.5852897176794184e-02 9.9853827164355337e+01 -1 1 -1
2 1 7.6637860729878582e-01 1.1956994751499141e+00 9.9853827163382874e+01 0 1 -1
3 1 3.7867131070274006e+01 2.0486402004366770e+01 9.9877594415919930e+01 -1 0 -1
4 1 4.0051525576848661e+01 2.1617157565181994e+01 9.9859986745095057e+01 -1 0 -1
5 1 3.9399182957221882e+01 2.2878739317375594e+01 9.9857957602965726e+01 -1 0 -1
6 1 1.4513712959628158e+01 2.2747089364133544e+01 9.9853827163986182e+01 0 0 -1
7 1 1.3861395706702096e+01 2.4008642176629095e+01 9.9851742931280128e+01 0 0 -1
8 1 1.6698813089676456e+01 2.3877060220781789e+01 9.9859986743592486e+01 0 0 -1
9 1 2.1850633547425855e+00 1.1299644315903021e+00 9.9857939992850405e+01 0 1 -1
10 1 5.0221728970463708e+00 9.9929112060625314e-01 9.9877690005856721e+01 0 1 -1
11 1 3.5573566969983659e+01 1.6894858309189043e+01 9.9924704428444272e+01 -1 0 -1
12 1 3.7755186626507339e+01 1.8028234985646790e+01 9.9898955994788608e+01 -1 0 -1
13 1 3.7102354566536036e+01 1.9289819949558368e+01 9.9892351367219874e+01 -1 0 -1
14 1 1.2215721299597291e+01 1.9159667514827891e+01 9.9877690007048145e+01 0 0 -1
15 1 3.9285803831674329e+01 2.0421122279313753e+01 9.9869959636541509e+01 -1 0 -1
16 1 1.4400141034979368e+01 2.0289999525346037e+01 9.9866041789723198e+01 0 0 -1
17 1 1.3747442415047461e+01 2.1551339788183110e+01 9.9857939993973460e+01 0 0 -1
18 1 1.6585157474888476e+01 2.1420057414119309e+01 9.9865983946310863e+01 0 0 -1
19 1 1.5932422599055807e+01 2.2681324079630418e+01 9.9857957601646561e+01 0 0 -1
20 1 1.8770273452209171e+01 2.2550696828925808e+01 9.9877594412872583e+01 0 0 -1
21 1 1.8117470944472323e+01 2.3811943301930466e+01 9.9869959634813696e+01 0 0 -1
22 1 2.0955080704254037e+01 2.3682833517010074e+01 9.9898955991784149e+01 0 0 -1
23 1 6.4407500793951726e+00 9.3542570286249860e-01 9.9892090387065835e+01 0 1 -1
24 1 9.2779922772994130e+00 8.0889848588687385e-01 9.9924846217388477e+01 0 1 -1
25 1 8.6247905799516253e+00 2.0700274627848998e+00 9.9919480603970300e+01 0 1 -1
26 1 1.1461784158438073e+01 1.9466170129981608e+00 9.9946766049418670e+01 0 1 -1
27 1 3.3288186137250968e+01 1.3298253167556675e+01 9.9953942737991909e+01 -1 0 -1
28 1 3.5466208864680354e+01 1.4434476796392326e+01 9.9943961097753700e+01 -1 0 -1
29 1 3.4812508109202412e+01 1.5696103782233845e+01 9.9939613834806607e+01 -1 0 -1
30 1 9.9229268559093260e+00 1.5569216072032154e+01 9.9924846219100260e+01 0 0 -1
31 1 3.6992235734534752e+01 1.6830696560038259e+01 9.9915772949300475e+01 -1 0 -1
32 1 1.2104551440433449e+01 1.6701881293962273e+01 9.9904050580350003e+01 0 0 -1
33 1 1.1451123684082303e+01 1.7963076287544176e+01 9.9892090388694953e+01 0 0 -1
34 1 1.4287951959748888e+01 1.7832998886571488e+01 9.9888850370292047e+01 0 0 -1
35 1 1.3634497945745412e+01 1.9093943713329153e+01 9.9875670914880871e+01 0 0 -1
36 1 1.6472460740770135e+01 1.8963480613041895e+01 9.9883261142653637e+01 0 0 -1
37 1 1.5818927124607548e+01 2.0224248146352920e+01 9.9869950872104624e+01 0 0 -1
38 1 1.8657513518279764e+01 2.0094158651779978e+01 9.9888522337747915e+01 0 0 -1
39 1 1.8003901773495901e+01 2.1354844539896003e+01 9.9875823505684707e+01 0 0 -1
40 1 2.0842616454990633e+01 2.1225990518549363e+01 9.9903702489079677e+01 0 0 -1
41 1 2.0188932147136995e+01 2.2486671894186394e+01 9.9892351363408594e+01 0 0 -1
42 1 2.3027423584883621e+01 2.2360183762517533e+01 9.9924704424064430e+01 0 0 -1
43 1 2.2373654876535326e+01 2.3620867800156997e+01 9.9915772946382191e+01 0 0 -1
44 1 2.5211855484163429e+01 2.3497399598167590e+01 9.9943961095142726e+01 0 0 -1
45 1 1.0696541318635406e+01 7.4937859521527372e-01 9.9938681371813857e+01 0 1 -1
46 1 1.3534656877134623e+01 6.2822725504390753e-01 9.9953586843484374e+01 0 1 -1
47 1 1.2880408079057867e+01 1.8886717699304369e+00 9.9952768773080109e+01 0 1 -1
48 1 1.5718880592966876e+01 1.7681046061890853e+00 9.9949954139208529e+01 0 1 -1
49 1 3.1004864898715780e+01 9.7019613237757412e+00 9.9934225097900764e+01 -1 0 -1
50 1 3.3183318164229021e+01 1.0836954571215729e+01 9.9948727923755655e+01 -1 0 -1
51 1 3.2529053089165956e+01 1.2098395867398958e+01 9.9953714329248854e+01 -1 0 -1
52 1 7.6381287805038935e+00 1.1973171943311618e+01 9.9953586844180080e+01 0 0 -1
53 1 3.4706871975896867e+01 1.3234791131030214e+01 9.9951872510413907e+01 -1 0 -1
54 1 9.8163240857000780e+00 1.3109137511302643e+01 9.9946766050042640e+01 0 0 -1
55 1 9.1621066544132468e+00 1.4370476466618062e+01 9.9938681373563952e+01 0 0 -1
56 1 1.1996222640275157e+01 1.4243516798523114e+01 9.9932443636127786e+01 0 0 -1
57 1 1.1341697404808317e+01 1.5504340808560407e+01 9.9919480604470237e+01 0 0 -1
58 1 1.4178176012955236e+01 1.5376022168045267e+01 9.9917814902983309e+01 0 0 -1
59 1 1.3523418846482365e+01 1.6636366163584700e+01 9.9902040921758825e+01 0 0 -1
60 1 1.6361787720894441e+01 1.6507355726655319e+01 9.9908768850203771e+01 0 0 -1
61 1 1.5706870246146387e+01 1.7767351508258553e+01 9.9892114462498654e+01 0 0 -1
62 1 1.8546393524103483e+01 1.7638404607224423e+01 9.9908324758754091e+01 0 0 -1
63 1 1.7891364032204933e+01 1.8898216496714809e+01 9.9892249348948326e+01 0 0 -1
64 1 2.0731400966982299e+01 1.8770123933055949e+01 9.9916873289288262e+01 0 0 -1
65 1 2.0076350579108237e+01 2.0029930341278895e+01 9.9902575123713788e+01 0 0 -1
66 1 2.2916317947707967e+01 1.9903793837385948e+01 9.9931685255066128e+01 0 0 -1
67 1 2.2261373432349757e+01 2.1163732173183305e+01 9.9920458121816338e+01 0 0 -1
68 1 2.5100805574501326e+01 2.1040321263829149e+01 9.9946572392026923e+01 0 0 -1
69 1 2.4446104876373830e+01 2.2300464637510053e+01 9.9939613830931293e+01 0 0 -1
70 1 2.7284865425064062e+01 2.2179288338932032e+01 9.9953942737120499e+01 0 0 -1
71 1 2.6630482203074656e+01 2.3439637324564025e+01 9.9951872508980415e+01 0 0 -1
72 1 2.9468846481577557e+01 2.3319119253106734e+01 9.9948727925481933e+01 0 0 -1
73 1 1.4953288953245309e+01 5.7094829869551478e-01 9.9951601727853543e+01 0 1 -1
74 1 1.7791680875036125e+01 4.4918649263360350e-01 9.9931536968462169e+01 0 1 -1
75 1 1.7137583549879224e+01 1.7096790903802488e+00 9.9938943289231943e+01 0 1 -1
76 1 1.9976291834022451e+01 1.5852401260135123e+00 9.9908768851957987e+01 0 1 -1
77 1 3.0897080750812894e+01 7.2424456074019581e+00 9.9908324756699614e+01 -1 0 -1
78 1 3.0243335582953229e+01 8.5036479839175367e+00 9.9920093162703466e+01 -1 0 -1
79 1 5.3545630343566888e+00 8.3760013325283253e+00 9.9931536965583433e+01 0 0 -1
80 1 3.2423608719793265e+01 9.6375352173271409e+00 9.9939027468636283e+01 -1 0 -1
81 1 7.5331797061259191e+00 9.5116399938262255e+00 9.9949954139124344e+01 0 0 -1
82 1 6.8792077778838427e+00 1.0773239976138903e+01 9.9951601727481432e+01 0 0 -1
83 1 9.7114475377724290e+00 1.0648338408543196e+01 9.9957311318164074e+01 0 0 -1
84 1 9.0568301346229330e+00 1.1909545728870979e+01 9.9952768773747806e+01 0 0 -1
85 1 1.1890645550592534e+01 1.1784430791278982e+01 9.9953716516303231e+01 0 0 -1
86 1 1.1235119061111694e+01 1.3044904507229457e+01 9.9943728035507732e+01 0 0 -1
87 1 1.4071472331952709e+01 1.2918824029348491e+01 9.9944482141995167e+01 0 0 -1
88 1 1.3415156749161754e+01 1.4178521457869833e+01 9.9930514536767546e+01 0 0 -1
89 1 1.6254045218670782e+01 1.4051600427393812e+01 9.9935647954794320e+01 0 0 -1
90 1 1.5597242371423709e+01 1.5310674220679086e+01 9.9919707549510477e+01 0 0 -1
91 1 1.8437944559687892e+01 1.5183453910812162e+01 9.9931536966716351e+01 0 0 -1
92 1 1.7780916770291533e+01 1.6442155044660090e+01 9.9915670884801216e+01 0 0 -1
93 1 2.0622504503573435e+01 1.6315302894458267e+01 9.9934225100090231e+01 0 0 -1
94 1 1.9965499400509856e+01 1.7573963299470041e+01 9.9920093165682843e+01 0 0 -1
95 1 2.2807118613028930e+01 1.7448460938178762e+01 9.9942683097767770e+01 0 0 -1
96 1 2.2150440535929011e+01 1.8707386899054022e+01 9.9931699226028542e+01 0 0 -1
97 1 2.4991308503970188e+01 1.8584006261301084e+01 9.9952588319582333e+01 0 0 -1
98 1 2.4335272820298457e+01 1.9843418584086937e+01 9.9945798652413657e+01 0 0 -1
99 1 2.7174774625243735e+01 1.9721960862664222e+01 9.9957735857712763e+01 0 0 -1
100 1 2.6519628369675772e+01 2.0981961448063409e+01 9.9955295615315976e+01 0 0 -1
101 1 2.9357767004730924e+01 2.0861259396212564e+01 9.9952265139079202e+01 0 0 -1
102 1 2.8703538837222602e+01 2.2121788406203855e+01 9.9953714330732808e+01 0 0 -1
103 1 3.1541006147068320e+01 2.2000019932094510e+01 9.9934225103348894e+01 0 0 -1
104 1 3.0887428832255601e+01 2.3260901182852134e+01 9.9939027472229867e+01 0 0 -1
105 1 3.3724901274925998e+01 2.3136433940170051e+01 9.9908324762061625e+01 0 0 -1
106 1 1.9210261945077526e+01 3.8883864253651806e-01 9.9915670886841824e+01 0 1 -1
107 1 2.2048021826627291e+01 2.6133200000580020e-01 9.9883261145210540e+01 0 1 -1
108 1 2.1394938925927853e+01 1.5224173568741293e+00 9.9892114463691215e+01 0 1 -1
109 1 2.4232980690605824e+01 1.3927540145068040e+00 9.9866041790046154e+01 0 1 -1
110 1 2.8602691475113808e+01 3.6531390327018585e+00 9.9865983944944276e+01 -1 0 -1
111 1 3.0637059036642702e+00 4.7838291238650879e+00 9.9883261141495169e+01 0 0 -1
112 1 3.0133566434906651e+01 6.0452674935580184e+00 9.9892249346899007e+01 -1 0 -1
113 1 5.2461089199104380e+00 5.9160458850580655e+00 9.9908768850180707e+01 0 0 -1
114 1 4.5930098068638712e+00 7.1776479981669175e+00 9.9915670883430792e+01 0 0 -1
115 1 7.4267266004732608e+00 7.0506157084424563e+00 9.9935647955413373e+01 0 0 -1
116 1 6.7732303060736392e+00 8.3122198960574956e+00 9.9938943288345357e+01 0 0 -1
117 1 9.6062063542635521e+00 8.1873829916758698e+00 9.9955052915896331e+01 0 0 -1
118 1 8.9518788202605677e+00 9.4486024342629165e+00 9.9953915820202880e+01 0 0 -1
119 1 1.1785886653216206e+01 9.3247819279095463e+00 9.9962537192603008e+01 0 0 -1
120 1 1.1130264977759420e+01 1.0585201441376556e+01 9.9957204827612458e+01 0 0 -1
121 1 1.3966657009350193e+01 1.0461097551216833e+01 9.9960742263608182e+01 0 0 -1
122 1 1.3309625398089686e+01 1.1720521837844942e+01 9.9952056248191653e+01 0 0 -1
123 1 1.6148774725734334e+01 1.1595731902518532e+01 9.9955052915032013e+01 0 0 -1
124 1 1.5490637811384122e+01 1.2854235770511915e+01 9.9944335257843917e+01 0 0 -1
125 1 1.8332128175067943e+01 1.2728897137156981e+01 9.9949954139532039e+01 0 0 -1
126 1 1.7673374630876488e+01 1.3986742682818777e+01 9.9938943288843305e+01 0 0 -1
127 1 2.0516210907080083e+01 1.3861210328989950e+01 9.9948727925127514e+01 0 0 -1
128 1 1.9857338010138648e+01 1.5118847715166805e+01 9.9939027470592052e+01 0 0 -1
129 1 2.2700319672699290e+01 1.4993942552013298e+01 9.9952265137077177e+01 0 0 -1
130 1 2.2041851647056806e+01 1.6251884818911350e+01 9.9945016511794577e+01 0 0 -1
131 1 2.4883901292169991e+01 1.6128371593637223e+01 9.9958073054013838e+01 0 0 -1
132 1 2.4226356844532312e+01 1.7386996019041156e+01 9.9953955414335539e+01 0 0 -1
133 1 2.7066613497671675e+01 1.7264853044795494e+01 9.9961748800317679e+01 0 0 -1
134 1 2.6410382220544882e+01 1.8524371769242155e+01 9.9960633978707818e+01 0 0 -1
135 1 2.9248420614906067e+01 1.8403007652584996e+01 9.9958073056456158e+01 0 0 -1
136 1 2.8593624353111331e+01 1.9663398026870357e+01 9.9959080269537154e+01 0 0 -1
137 1 3.1430042795721814e+01 1.9541509545244850e+01 9.9942683102182613e+01 0 0 -1
138 1 3.0776410987504761e+01 2.0802538261126138e+01 9.9945016515057276e+01 0 0 -1
139 1 3.3612495252760283e+01 2.0678302264979916e+01 9.9916873294670268e+01 0 0 -1
140 1 3.2959540576822420e+01 2.1939672791413876e+01 9.9920093169757422e+01 0 0 -1
141 1 3.5796086611187853e+01 2.1812324091948913e+01 9.9888522341926205e+01 0 0 -1
142 1 3.5143445080424883e+01 2.3073800132285889e+01 9.9892249352362938e+01 0 0 -1
143 1 3.7980526598499324e+01 2.2944087708806826e+01 9.9865983948250019e+01 0 0 -1
144 1 2.3466645370205274e+01 1.9692490384370168e-01 9.9869950873473073e+01 0 1 -1
145 1 2.5651682716560913e+01 1.3273374211405538e+00 9.9857939993326426e+01 0 1 -1
146 1 2.7836769984240210e+01 2.4572207309429350e+00 9.9857957600775876e+01 -1 0 -1
147 1 2.9510667496653040e+00 2.3258881969024219e+00 9.9866041788992817e+01 0 0 -1
148 1 2.2986160390650823e+00 3.5874686396040354e+00 9.9869950870834373e+01 0 0 -1
149 1 5.1349862006786751e+00 3.4572298368195424e+00 9.9888850370005684e+01 0 0 -1
150 1 4.4823793157478438e+00 4.7188727866915761e+00 9.9892114461665059e+01 0 0 -1
151 1 7.3176784183644141e+00 4.5906493685653942e+00 9.9917814904092296e+01 0 0 -1
152 1 6.6647381696081434e+00 5.8522708654495386e+00 9.9919707550023915e+01 0 0 -1
153 1 9.4990262312756482e+00 5.7268402957578699e+00 9.9944482143734774e+01 0 0 -1
154 1 8.8453785264111566e+00 6.9881677572107392e+00 9.9944335259076595e+01 0 0 -1
155 1 1.1679887420794692e+01 6.8649307317935087e+00 9.9960742264701423e+01 0 0 -1
156 1 1.1024990958931854e+01 8.1255739833947978e+00 9.9958531994835838e+01 0 0 -1
157 1 1.3861396154391858e+01 8.0028805823862363e+00 9.9965296863246465e+01 0 0 -1
158 1 1.3204869756910160e+01 9.2625165158285050e+00 9.9961691596001927e+01 0 0 -1
159 1 1.6043950979820551e+01 9.1393738606752049e+00 9.9962537192306641e+01 0 0 -1
160 1 1.5385854309440502e+01 1.0397932854772188e+01 9.9958531993970084e+01 0 0 -1
161 1 1.8227404013185676e+01 1.0274112587988133e+01 9.9957311318236222e+01 0 0 -1
162 1 1.7568186555245056e+01 1.1531786407116146e+01 9.9953915820066257e+01 0 0 -1
163 1 2.0411402812407125e+01 1.1407242536479744e+01 9.9953586844295955e+01 0 0 -1
164 1 1.9751691778665339e+01 1.2664453401682856e+01 9.9951601728272593e+01 0 0 -1
165 1 2.2595323988704763e+01 1.2539742641157533e+01 9.9953942737181791e+01 0 0 -1
166 1 2.1935783635299529e+01 1.3797099815708419e+01 9.9953714330109349e+01 0 0 -1
167 1 2.4778477382640098e+01 1.3673064892235654e+01 9.9957735856636774e+01 0 0 -1
168 1 2.4119769378439152e+01 1.4931106204572997e+01 9.9959080267678431e+01 0 0 -1
169 1 2.6960475694999975e+01 1.4807948448776697e+01 9.9961748799453247e+01 0 0 -1
170 1 2.6303155264264134e+01 1.6066984177441398e+01 9.9964048734061677e+01 0 0 -1
171 1 2.9141286360796414e+01 1.5944482648789343e+01 9.9961748800975442e+01 0 0 -1
172 1 2.8485630634575084e+01 1.7204591331680945e+01 9.9964048735472971e+01 0 0 -1
173 1 3.1321358975219574e+01 1.7082172889301539e+01 9.9952588323371984e+01 0 0 -1
174 1 3.0667193555112824e+01 1.8343145588571769e+01 9.9953955418145924e+01 0 0 -1
175 1 3.3501823748944915e+01 1.8219273619333620e+01 9.9931685260701755e+01 0 0 -1
176 1 3.2848643672220135e+01 1.9480746418061610e+01 9.9931699231488778e+01 0 0 -1
177 1 3.5683730355160293e+01 1.9354053462360188e+01 9.9903702493839532e+01 0 0 -1
178 1 3.5031044816721185e+01 2.0615689296680870e+01 9.9902575128434336e+01 0 0 -1
179 1 3.7214678490347396e+01 2.1748025475471085e+01 9.9875823508786027e+01 0 0 -1
180 1 4.3697029961084173e+00 2.2608496585475217e+00 9.9875670914057864e+01 0 0 -1
181 1 7.2062630924462887e+00 2.1319082745053652e+00 9.9904050580109654e+01 0 0 -1
182 1 6.5535671245672553e+00 3.3934410246807869e+00 9.9902040922157070e+01 0 0 -1
183 1 9.3894335487743632e+00 3.2672749496211142e+00 9.9932443636756503e+01 0 0 -1
184 1 8.7362540714510466e+00 4.5286055868618416e+00 9.9930514537970510e+01 0 0 -1
185 1 1.1571853019120647e+01 4.4053854466913505e+00 9.9953716517205308e+01 0 0 -1
186 1 1.0917709831114076e+01 5.6662125144235560e+00 9.9952056249547724e+01 0 0 -1
187 1 1.3754350837571298e+01 5.5444859555955173e+00 9.9962537192625376e+01 0 0 -1
188 1 1.3098782670480166e+01 6.8044940642042180e+00 9.9961691596413090e+01 0 0 -1
189 1 1.5937644047497329e+01 6.6826134648972797e+00 9.9960742263767173e+01 0 0 -1
190 1 1.5280536069066041e+01 7.9416311140881684e+00 9.9961691595889974e+01 0 0 -1
191 1 1.8121689897356188e+01 7.8188255042585233e+00 9.9953716516401684e+01 0 0 -1
192 1 1.7463317133419757e+01 9.0769490827183397e+00 9.9957204827401242e+01 0 0 -1
193 1 2.0306080230919136e+01 8.9528872124476830e+00 9.9946766049281479e+01 0 0 -1
194 1 1.9646950270747936e+01 1.0210424186335075e+01 9.9952768773486056e+01 0 0 -1
195 1 2.2490311205541126e+01 1.0085407758708584e+01 9.9943961095137183e+01 0 0 -1
196 1 2.1831021400887057e+01 1.1342855654297155e+01 9.9951872509271610e+01 0 0 -1
197 1 2.4673728364866868e+01 1.1217774810890315e+01 9.9946572391130175e+01 0 0 -1
198 1 2.4014858019522919e+01 1.2475691279000838e+01 9.9955295614532261e+01 0 0 -1
199 1 2.6855708071952833e+01 1.2351104992663196e+01 9.9952588318077872e+01 0 0 -1
200 1 2.6197816148746259e+01 1.3609876122118933e+01 9.9960633977416052e+01 0 0 -1
201 1 2.9036053646992578e+01 1.3485904897072619e+01 9.9958073053377106e+01 0 0 -1
202 1 2.8379589682352155e+01 1.4745708576851818e+01 9.9964048733968028e+01 0 0 -1
203 1 3.1215123547284907e+01 1.4622258390278120e+01 9.9957735858458960e+01 0 0 -1
204 1 3.0560177199505720e+01 1.5883036199859443e+01 9.9960633980529451e+01 0 0 -1
205 1 3.3393841609477583e+01 1.5759188072031211e+01 9.9946572395785211e+01 0 0 -1
206 1 3.2740059883866515e+01 1.7020610256472434e+01 9.9945798657016766e+01 0 0 -1
207 1 3.4920434610390515e+01 1.8156502994061995e+01 9.9920458127094378e+01 0 0 -1
208 1 1.0808014046897540e+01 3.2074459893704153e+00 9.9943728035985259e+01 0 0 -1
209 1 1.3645336928103129e+01 3.0861907462364666e+00 9.9957311317857545e+01 0 0 -1
210 1 1.2990606388065787e+01 4.3464911571199840e+00 9.9957204827822579e+01 0 0 -1
211 1 1.5829207386054897e+01 4.2255268486406825e+00 9.9955052915116852e+01 0 0 -1
212 1 1.5173343220763975e+01 5.4851348467290277e+00 9.9958531994083145e+01 0 0 -1
213 1 1.8013689910208328e+01 5.3629774168994135e+00 9.9944482142266622e+01 0 0 -1
214 1 1.7356853257021879e+01 6.6219073445648107e+00 9.9952056248241419e+01 0 0 -1
215 1 2.0198532292270048e+01 6.4978499930996865e+00 9.9932443635423283e+01 0 0 -1
216 1 1.9541055403026860e+01 7.7562911981168936e+00 9.9943728034809652e+01 0 0 -1
217 1 2.2383269339411275e+01 7.6305271773554582e+00 9.9924846216336235e+01 0 0 -1
218 1 2.1725540526800529e+01 8.8887866016454495e+00 9.9938681370979822e+01 0 0 -1
219 1 2.4567384993873755e+01 8.7622420780053965e+00 9.9924704422412830e+01 0 0 -1
220 1 2.3909762571496216e+01 1.0020715684930714e+01 9.9939613829910755e+01 0 0 -1
221 1 2.6750233855775505e+01 9.8942166914974639e+00 9.9931685252933391e+01 0 0 -1
222 1 2.6093042884446582e+01 1.1153255257088922e+01 9.9945798650421239e+01 0 0 -1
223 1 2.8931214142487086e+01 1.1027313663559141e+01 9.9942683095465810e+01 0 0 -1
224 1 2.8274825170269722e+01 1.2287142471233336e+01 9.9953955412437139e+01 0 0 -1
225 1 3.1110288869994392e+01 1.2162082198555465e+01 9.9952265135918026e+01 0 0 -1
226 1 3.0454981843376842e+01 1.3422779868087330e+01 9.9959080267470327e+01 0 0 -1
227 1 3.2633889189357561e+01 1.4559631354839595e+01 9.9955295617176475e+01 0 0 -1
228 1 1.5064123118126359e+01 3.0282528579126078e+00 9.9953915819741027e+01 0 0 -1
229 1 1.7903416660347904e+01 2.9064256059377951e+00 9.9935647955331049e+01 0 0 -1
230 1 1.7248172173761354e+01 4.1662381626347962e+00 9.9944335257962678e+01 0 0 -1
231 1 2.0088334039053304e+01 4.0419702034799023e+00 9.9917814903548617e+01 0 0 -1
232 1 1.9432777672646992e+01 5.3015146219988321e+00 9.9930514536374744e+01 0 0 -1
233 1 2.2273373943048117e+01 5.1748521685520625e+00 9.9904050578692306e+01 0 0 -1
234 1 2.1617700495335594e+01 6.4342734263863690e+00 9.9919480602466024e+01 0 0 -1
235 1 2.4458108222037140e+01 6.3062156520152204e+00 9.9898955990143293e+01 0 0 -1
236 1 2.3802484985050452e+01 7.5657197475398537e+00 9.9915772944286047e+01 0 0 -1
237 1 2.6642028737392799e+01 7.4372401704949374e+00 9.9903702486625576e+01 0 0 -1
238 1 2.5986567523983268e+01 8.6970489040656762e+00 9.9920458119046955e+01 0 0 -1
239 1 2.8824479324778842e+01 8.5688579521894290e+00 9.9916873286488936e+01 0 0 -1
240 1 2.8169291349731424e+01 9.8291507912463221e+00 9.9931699223142232e+01 0 0 -1
241 1 3.0350112954112490e+01 1.0962861013251951e+01 9.9945016509350197e+01 0 0 -1
242 1 1.9322207940191920e+01 2.8456966171100837e+00 9.9919707550328880e+01 0 0 -1
243 1 2.2161250319363266e+01 2.7184130153135020e+00 9.9888850370518227e+01 0 0 -1
244 1 2.1507202555866801e+01 3.9788345030652983e+00 9.9902040921160378e+01 0 0 -1
245 1 2.4346294276960943e+01 3.8496831008799433e+00 9.9877690005172724e+01 0 0 -1
246 1 2.3692314728275885e+01 5.1101396590640089e+00 9.9892090385294452e+01 0 0 -1
247 1 2.6530971023585057e+01 4.9801853208063021e+00 9.9877594410970431e+01 0 0 -1
248 1 2.5877088833614231e+01 6.2407922751890306e+00 9.9892351361141181e+01 0 0 -1
249 1 2.8714775418960176e+01 6.1108014102606880e+00 9.9888522335764335e+01 0 0 -1
250 1 2.8060980202630248e+01 7.3716644653517740e+00 9.9902575120627148e+01 0 0 -1
251 1 2.3579987530190142e+01 2.6538483344372952e+00 9.9875670914345207e+01 0 0 -1
252 1 2.6418036883231441e+01 2.5230663697835745e+00 9.9859986743208268e+01 0 0 -1
253 1 2.5765100830989873e+01 3.7842185278207010e+00 9.9869959633380859e+01 0 0 -1
254 1 2.7949795295786540e+01 4.9144140482497765e+00 9.9875823503396873e+01 0 0 -1
255 2 4.0165492136033748e+01 2.3942789076595471e+01 3.4461728357047630e+00 -1 0 0
256 2 2.8375109523729332e+01 1.2615525756598103e+00 3.4461728365546085e+00 -1 1 0
257 2 3.8207689733160976e+01 2.0158958872251311e+01 3.4223099908425030e+00 -1 0 0
258 2 1.2556640395475535e+01 2.1485575570229489e+01 3.4400132544816837e+00 0 0 0
259 2 3.9513078012155709e+01 2.2681304489518041e+01 3.4420600053482184e+00 -1 0 0
260 2 1.4627773924565536e+01 2.2812942474564000e+01 3.4461728359294002e+00 0 0 0
261 2 1.3861395727891901e+01 2.4008642178876745e+01 3.4482570687133332e+00 0 0 0
262 2 2.8374178634997977e+00 1.3158174595823835e-01 3.4400132565403077e+00 0 1 0
263 2 2.0710273283042628e+00 1.3273178258649472e+00 3.4420423986550310e+00 0 1 0
264 2 4.9088781577370870e+00 1.4579451092852442e+00 3.4224055867847913e+00 0 1 0
265 2 3.4167475999338677e+01 1.5055754733530263e+01 3.3532339474443646e+00 -1 0 0
266 2 3.6244665022304396e+01 1.6378114791038271e+01 3.3751537785516796e+00 -1 0 0
267 2 3.5479096126612056e+01 1.7574368488002353e+01 3.3805193915619336e+00 -1 0 0
268 2 1.0596711959116289e+01 1.7702426292966329e+01 3.4010440041498988e+00 0 0 0
269 2 3.7553710251129324e+01 1.8898502247469068e+01 3.4079096089138941e+00 -1 0 0
270 2 1.2669574709449364e+01 1.9028456622755431e+01 3.4224055846315009e+00 0 0 0
271 2 1.1903704437184279e+01 2.0224423407826574e+01 3.4300403628713299e+00 0 0 0
272 2 1.4741295059328888e+01 2.0355502935078629e+01 3.4340160528697510e+00 0 0 0
273 2 1.3975373523582437e+01 2.1551421174783631e+01 3.4420423972411096e+00 0 0 0
274 2 1.6812462111267571e+01 2.1682753741810437e+01 3.4339582106398656e+00 0 0 0
275 2 1.6046458639025822e+01 2.2878677486915823e+01 3.4420600068782323e+00 0 0 0
276 2 1.8883568196834961e+01 2.3009350836282216e+01 3.4223099946292206e+00 0 0 0
277 2 4.2560757393348432e+00 1.9669862615433775e-01 3.4300403652485110e+00 0 1 0
278 2 7.0936854609497875e+00 3.2580843950123417e-01 3.4010440082172537e+00 0 1 0
279 2 6.3275368544514681e+00 1.5219700080786986e+00 3.4076486358984748e+00 0 1 0
280 2 9.1660282881125585e+00 1.6484581721295775e+00 3.3752955740664761e+00 0 1 0
281 2 3.2193524156574860e+01 1.1279744815901951e+01 3.3500458612122577e+00 -1 0 0
282 2 3.4272798718046005e+01 1.2601399424248649e+01 3.3464131552073244e+00 -1 0 0
283 2 3.3508346116287498e+01 1.3798217734973040e+01 3.3472312249087128e+00 -1 0 0
284 2 8.6289151690031822e+00 1.3923234193732707e+01 3.3560389018671937e+00 0 0 0
285 2 3.5586936278848782e+01 1.5119855306322306e+01 3.3613186246926046e+00 -1 0 0
286 2 1.0705988897057621e+01 1.5246399863263724e+01 3.3752955723390454e+00 0 0 0
287 2 9.9410888118765381e+00 1.6442922183358977e+01 3.3842270499231915e+00 0 0 0
288 2 1.2780632552688406e+01 1.6571401792454147e+01 3.3962975079561670e+00 0 0 0
289 2 1.2015692597649037e+01 1.7767849634723710e+01 3.4076486330705724e+00 0 0 0
290 2 1.4853379149628235e+01 1.7897840532333749e+01 3.4114776600809327e+00 0 0 0
291 2 1.4088398953728618e+01 1.9094227863279809e+01 3.4241764925307727e+00 0 0 0
292 2 1.6925101427488755e+01 1.9224812826536397e+01 3.4167388568826755e+00 0 0 0
293 2 1.6160011491522976e+01 2.0421173290619205e+01 3.4300491275788483e+00 0 0 0
294 2 1.8996381620917667e+01 2.0551412124324042e+01 3.4111496309589304e+00 0 0 0
295 2 1.8231098367548853e+01 2.1747792245381870e+01 3.4243290861453710e+00 0 0 0
296 2 2.1067658450395975e+01 2.1876733662748528e+01 3.3959494213084294e+00 0 0 0
297 2 2.0302145353161087e+01 2.3073216223363740e+01 3.4079096138613476e+00 0 0 0
298 2 2.3139387562325659e+01 2.3199743477908370e+01 3.3751537828103833e+00 0 0 0
299 2 8.5122596641580657e+00 3.8777411929320338e-01 3.3842270529351346e+00 0 1 0
300 2 1.1350460227690244e+01 5.1124235058746825e-01 3.3560389035272262e+00 0 1 0
301 2 1.0584709564232249e+01 1.7081772624604512e+00 3.3603861672363786e+00 0 1 0
302 2 1.3423470126371454e+01 1.8293535958459286e+00 3.3460572616299160e+00 0 1 0
303 2 3.0223183918879741e+01 7.5012862354482213e+00 3.3912311504979789e+00 -1 0 0
304 2 3.2299340684620027e+01 8.8251880414214359e+00 3.3684630338575552e+00 -1 0 0
305 2 3.1534770687816213e+01 1.0021899242377572e+01 3.3610567122382458e+00 -1 0 0
306 2 6.6548150980479210e+00 1.0147431629472953e+01 3.3512720750926950e+00 0 0 0
307 2 3.3613087758443612e+01 1.1344188512560947e+01 3.3483982721976870e+00 -1 0 0
308 2 8.7339281044183981e+00 1.1468899303494466e+01 3.3460572616792370e+00 0 0 0
309 2 7.9696254476814641e+00 1.2665786269443704e+01 3.3481274892384674e+00 0 0 0
310 2 1.0812332407035770e+01 1.2790867144319501e+01 3.3534276054417416e+00 0 0 0
311 2 1.0048366553138358e+01 1.3987926232143748e+01 3.3603861658264687e+00 0 0 0
312 2 1.2888837811385105e+01 1.4114425256935798e+01 3.3683147418496957e+00 0 0 0
313 2 1.2125171413062796e+01 1.5311593002950755e+01 3.3795418748147741e+00 0 0 0
314 2 1.4963083214145421e+01 1.5439783990570099e+01 3.3831267083033856e+00 0 0 0
315 2 1.4199584021360778e+01 1.6636977461219637e+01 3.3974248738783825e+00 0 0 0
316 2 1.7035684549346652e+01 1.6766196351652987e+01 3.3916752402611308e+00 0 0 0
317 2 1.6272170180462517e+01 1.7963374415005934e+01 3.4077506495473169e+00 0 0 0
318 2 1.9107504499124268e+01 1.8092596057408830e+01 3.3912311495003076e+00 0 0 0
319 2 1.8343774816666084e+01 1.9289769133675929e+01 3.4078855379094928e+00 0 0 0
320 2 2.1179073925765891e+01 1.9417992591254883e+01 3.3821850978758330e+00 0 0 0
321 2 2.0414962568121332e+01 2.0615200899844620e+01 3.3979590792483543e+00 0 0 0
322 2 2.3250828953128575e+01 2.0741367006052638e+01 3.3675563653026321e+00 0 0 0
323 2 2.2486185929205227e+01 2.1938614440420789e+01 3.3805193973959495e+00 0 0 0
324 2 2.5323179514257735e+01 2.2062024925241875e+01 3.3532339504279163e+00 0 0 0
325 2 2.4557936584109108e+01 2.3259263339652669e+01 3.3613186280128584e+00 0 0 0
326 2 2.7396052151079608e+01 2.3380414717258013e+01 3.3464131550290106e+00 0 0 0
327 2 1.2769086985527794e+01 5.6900459116394464e-01 3.3481274895527680e+00 0 1 0
328 2 1.5607451215353416e+01 6.8952269311218317e-01 3.3512720738489357e+00 0 1 0
329 2 1.4842143510497444e+01 1.8868534960134999e+00 3.3462856693069165e+00 0 1 0
330 2 1.7679610843735063e+01 2.0086220070234320e+00 3.3657748994568513e+00 0 1 0
331 2 2.8261537455857976e+01 3.7186424444346597e+00 3.4339582113312193e+00 -1 0 0
332 2 3.0333857085075984e+01 5.0451613315907604e+00 3.4167388577109143e+00 -1 0 0
333 2 2.9568266517473209e+01 6.2412904151026520e+00 3.4078855386440274e+00 -1 0 0
334 2 4.6849979460390001e+00 6.3702373528180978e+00 3.3916752406221553e+00 0 0 0
335 2 3.1642312977176569e+01 7.5664868783444241e+00 3.3843291157409321e+00 -1 0 0
336 2 6.7611088343084091e+00 7.6933390581599159e+00 3.3657748989800105e+00 0 0 0
337 2 5.9959422801546864e+00 8.8897942005411839e+00 3.3609725297027375e+00 0 0 0
338 2 8.8389239380718347e+00 9.0146993960929489e+00 3.3477348615799443e+00 0 0 0
339 2 8.0743878299329772e+00 1.0211542107721044e+01 3.3462856693933820e+00 0 0 0
340 2 1.0917081563413529e+01 1.0335577063487898e+01 3.3422641411579077e+00 0 0 0
341 2 1.0153462137218927e+01 1.1532950628429843e+01 3.3447043830709462e+00 0 0 0
342 2 1.2994312175187833e+01 1.1657536946529415e+01 3.3474116782385814e+00 0 0 0
343 2 1.2231646920958923e+01 1.2855386661427998e+01 3.3542013449764050e+00 0 0 0
344 2 1.5069818172114342e+01 1.2981328287219290e+01 3.3573169000380298e+00 0 0 0
345 2 1.4307895318300165e+01 1.4179491123574206e+01 3.3683007711559791e+00 0 0 0
346 2 1.7143468846146941e+01 1.4306680623921418e+01 3.3657748981170204e+00 0 0 0
347 2 1.6381939461848575e+01 1.5504993928748505e+01 3.3799068325022850e+00 0 0 0
348 2 1.9215958763055440e+01 1.5632640617851751e+01 3.3684630325030205e+00 0 0 0
349 2 1.8454405470868700e+01 1.6830993925938294e+01 3.3843291144132883e+00 0 0 0
350 2 2.1288122236509196e+01 1.6958026249238149e+01 3.3643520454356453e+00 0 0 0
351 2 2.0526133748193310e+01 1.8156371043915652e+01 3.3802924506448004e+00 0 0 0
352 2 2.3360421805394992e+01 1.8281801649512907e+01 3.3555178581825085e+00 0 0 0
353 2 2.2597649561224195e+01 1.9480036344596620e+01 3.3694854643038861e+00 0 0 0
354 2 2.5433248513289808e+01 1.9603256523653258e+01 3.3462834837098296e+00 0 0 0
355 2 2.4669409483606913e+01 2.0801195932869142e+01 3.3562719649489736e+00 0 0 0
356 2 2.7506732320442516e+01 2.0922451207419606e+01 3.3426886806218428e+00 0 0 0
357 2 2.6741803411214036e+01 2.2119970135658551e+01 3.3472312259372186e+00 0 0 0
358 2 2.9580275945772563e+01 2.2240537335076585e+01 3.3500458583490045e+00 0 0 0
359 2 2.8814684213220321e+01 2.3437693644266396e+01 3.3483982706689730e+00 0 0 0
360 2 3.1653076137365140e+01 2.3559455485986568e+01 3.3684630306635350e+00 0 0 0
361 2 1.7026033609475292e+01 7.4774073134323227e-01 3.3609725285155259e+00 0 1 0
362 2 1.9863505999424579e+01 8.7220800429513079e-01 3.3916752396496435e+00 0 1 0
363 2 1.9098145237878178e+01 2.0689691153802334e+00 3.3799068339201579e+00 0 1 0