LAMMPS data file via write_data, version 30 Mar 2018, timestep = 836

114 atoms
6 atom types

0.0000000000000000e+00 1.3582328630299999e+01 xlo xhi
0.0000000000000000e+00 1.1762641272200000e+01 ylo yhi
0.0000000000000000e+00 1.0000000000000000e+02 zlo zhi
6.7911649460000003e+00 0.0000000000000000e+00 0.0000000000000000e+00 xy xz yz

Masses

1 95.94
2 32.066
3 32.066
4 95.94
5 32.066
6 32.066

Atoms # atomic

1 2 1.1786929546019234e+01 2.1562829214399426e-01 4.0843123593551391e+00 -1 1 0
2 3 1.1803922975110765e+01 2.2168444835613224e-01 7.1965052239213030e+00 -1 1 0
3 2 1.0844385347501280e+00 1.4470472866633544e+00 4.0843123566319184e+00 0 1 0
4 3 1.0811866063315665e+00 1.4293024690221259e+00 7.1965052206076612e+00 0 1 0
5 2 3.9444823865143492e+00 2.6812956276943192e+00 4.1064350527085800e+00 0 1 0
6 3 3.9351521665556639e+00 2.6626825622931647e+00 7.2255076297744925e+00 0 1 0
7 2 1.5363276362631936e+01 7.6394588708349200e+00 4.1189692727935272e+00 -1 0 0
8 3 1.5369663478221856e+01 7.6415768502784305e+00 7.2399425449507033e+00 -1 0 0
9 2 1.8211936542394788e+01 8.8726247145109536e+00 4.0986098214834481e+00 -1 0 0
10 3 1.8217127963506236e+01 8.8922156160758590e+00 7.2149622964004303e+00 -1 0 0
11 1 1.7508394274684942e+01 1.0536884047493132e+01 5.6524874828273131e+00 -1 0 0
12 2 7.5021247025690787e+00 1.0099966656080770e+01 4.0843123608756837e+00 0 0 0
13 3 7.4883832029905326e+00 1.0111655322816272e+01 7.1965052261654812e+00 0 0 0
14 1 1.3582328361078382e+01 3.5367133478498396e-07 5.6337570092331202e+00 -1 1 0
15 2 1.0374771079109248e+01 1.1335687145003190e+01 4.0986098167149496e+00 0 0 0
16 3 1.0355209148375479e+01 1.1330387602384020e+01 7.2149622919586864e+00 0 0 0
17 1 2.8683429463831738e+00 1.2263030879362531e+00 5.6513594982280821e+00 0 1 0
18 2 6.4345921252824017e+00 8.2319171579051931e-01 4.1140741899265700e+00 0 1 0
19 3 6.4361434276907890e+00 8.2085631157881545e-01 7.2350270091271849e+00 0 1 0
20 1 5.7247064863528063e+00 2.4723272017018227e+00 5.6742185574478379e+00 0 1 0
21 2 9.2880173047666794e+00 2.0753746169275034e+00 4.1064350556263109e+00 0 1 0
22 3 9.3088018010060978e+00 2.0766009392713873e+00 7.2255076336750976e+00 0 1 0
23 2 1.5024115938585048e+01 4.5493919195428072e+00 4.1086720354126651e+00 -1 0 0
24 3 1.5025226463884849e+01 4.5273432323855749e+00 7.2273897018759916e+00 -1 0 0
25 1 1.4303008859078387e+01 6.1900553909496097e+00 5.6790550504430808e+00 -1 0 0
26 2 4.2867728776107921e+00 5.7785256364002313e+00 4.1140741933801781e+00 0 0 0
27 3 4.2839747049582071e+00 5.7783498667213191e+00 7.2350270115530817e+00 0 0 0
28 1 1.7150739839454197e+01 7.4311863827142846e+00 5.6717530658288942e+00 -1 0 0
29 2 7.1409931004598830e+00 7.0059719914411538e+00 4.1064350599707691e+00 0 0 0
30 3 7.1295388240403241e+00 7.0233587297692202e+00 7.2255076383641166e+00 0 0 0
31 1 6.4190022908523812e+00 8.6654322996012887e+00 5.6513595054651447e+00 0 0 0
32 2 1.0010159647409345e+01 8.2393213814677217e+00 4.1086720395646825e+00 0 0 0
33 3 9.9905096646742351e+00 8.2493839858592839e+00 7.2273897081879879e+00 0 0 0
34 1 9.2852512934899103e+00 9.8942720006717764e+00 5.6524874825087110e+00 0 0 0
35 2 1.2867054021258681e+01 9.4852581186444898e+00 4.1189692717099149e+00 0 0 0
36 3 1.2862026237631454e+01 9.4897305375879917e+00 7.2399425448276249e+00 0 0 0
37 1 1.2153691652465731e+01 1.1137383158365569e+01 5.6717530621185572e+00 0 0 0
38 2 1.5712710780932632e+01 1.0736570206793127e+01 4.1086720370043777e+00 0 0 0
39 3 1.5731250238666110e+01 1.0748556291908960e+01 7.2273897048297400e+00 0 0 0
40 1 8.2229176349148663e+00 6.3017402146926671e-01 5.6706021371137814e+00 0 1 0
41 1 1.1086147534183473e+01 1.8709069447587667e+00 5.6513595021379839e+00 0 1 0
42 1 1.3953340778781763e+01 3.0941275570776687e+00 5.6524874796660809e+00 -1 0 0
43 1 3.2254517687225110e+00 4.3262992431404417e+00 5.6706021360286627e+00 0 0 0
44 2 6.7911642652901314e+00 3.9208807456245798e+00 4.1164182850418367e+00 0 0 0
45 3 6.7911642646661168e+00 3.9208807418502953e+00 7.2385571817371179e+00 0 0 0
46 1 6.0699089614960702e+00 5.5687369899383352e+00 5.6742185621026495e+00 0 0 0
47 2 9.6521277908594456e+00 5.1609248840011075e+00 4.1140741948870190e+00 0 0 0
48 3 9.6533746603584110e+00 5.1634360528275023e+00 7.2350270142663282e+00 0 0 0
49 1 8.9251233707297004e+00 6.8061690669234585e+00 5.6706021423881525e+00 0 0 0
50 2 1.2516655985181876e+01 6.4005665186220222e+00 4.1189692730360088e+00 0 0 0
51 3 1.2515296652886235e+01 6.3939761236312735e+00 7.2399425456233191e+00 0 0 0
52 1 1.1791569474891130e+01 8.0434867978452758e+00 5.6790550520526120e+00 0 0 0
53 1 1.4652408015142790e+01 9.2917414172751460e+00 5.6790550505237407e+00 0 0 0
54 1 8.5788773283283444e+00 3.7215781385208038e+00 5.6742185615098419e+00 0 0 0
55 2 1.2160278742584548e+01 3.3169716479571081e+00 4.0986098181619104e+00 0 0 0
56 3 1.2174649252627088e+01 3.3026802913558564e+00 7.2149622926057182e+00 0 0 0
57 1 1.1442554857441200e+01 4.9567140637862162e+00 5.6717530661521751e+00 0 0 0
58 5 1.6099966598352182e+01 9.6860409600375323e+00 1.0453540365786411e+01 -1 0 0
59 6 1.6079182103143086e+01 9.6872672859086304e+00 1.3572612943711521e+01 -1 0 0
60 5 1.8595087975808053e+01 1.1540957453069158e+01 1.0482542775616345e+01 -1 0 0
61 6 1.8578094545701894e+01 1.1547013609383402e+01 1.3594735640300785e+01 -1 0 0
62 5 1.4279547144378324e+01 1.6509865802066244e+00 1.0482542778356278e+01 -1 1 0
63 6 1.4293288641164363e+01 1.6626752420838276e+00 1.3594735642226800e+01 -1 1 0
64 5 1.3920703090153509e+01 4.7392831680132943e+00 1.0453540367992202e+01 -1 0 0
65 6 1.3932157365229468e+01 4.7566699091697489e+00 1.3572612945505943e+01 -1 0 0
66 5 1.6444539122163444e+01 6.5992058477194613e+00 1.0444020989388973e+01 -1 0 0
67 6 1.6443292257042199e+01 6.6017170197853901e+00 1.3564973808767833e+01 -1 0 0
68 4 1.5370041928436711e+01 8.0410638165982178e+00 1.2004829440179421e+01 -1 0 0
69 5 5.3834852852807611e+00 8.4599616115278700e+00 1.0464085703317872e+01 0 0 0
70 6 5.3691147803644013e+00 8.4456702562947701e+00 1.3580438179465606e+01 0 0 0
71 4 1.7877312335073515e+01 9.8917350108104447e+00 1.2027688497080462e+01 -1 0 0
72 5 7.8723514768729945e+00 1.0333339434519738e+01 1.0482542772972574e+01 0 0 0
73 6 7.8756034048287500e+00 1.0315594612437529e+01 1.3594735638249297e+01 0 0 0
74 4 1.3582328419188720e+01 3.2723946427391248e-07 1.2045290989981449e+01 -1 1 0
75 5 3.5640443276576965e+00 4.3225430232580886e-01 1.0464085707029589e+01 0 1 0
76 6 3.5836062564059543e+00 4.2695475097422325e-01 1.3580438181074490e+01 0 1 0
77 4 2.4940866060689881e+00 1.8683699530173703e+00 1.2026560520700251e+01 0 1 0
78 5 6.0708616086045346e+00 2.2729113667315244e+00 1.0439105456030164e+01 0 1 0
79 6 6.0758893935297307e+00 2.2773837807729844e+00 1.3560078727917515e+01 0 1 0
80 4 1.3210166362029977e+01 3.0972096521166597e+00 1.2027688498999300e+01 -1 0 0
81 5 3.1993451684797551e+00 3.5132579193071436e+00 1.0451658298360934e+01 0 0 0
82 6 3.2189951538766666e+00 3.5233205183658467e+00 1.3570375965406503e+01 0 0 0
83 4 1.5716287639902133e+01 4.9564728883257620e+00 1.2008445864315870e+01 -1 0 0
84 5 5.7241323504296640e+00 5.3686657799988877e+00 1.0439105453725317e+01 0 0 0
85 6 5.7254916887656018e+00 5.3620753849231422e+00 1.3560078726990298e+01 0 0 0
86 4 4.6513906945936085e+00 6.8059278939385504e+00 1.2007294935136706e+01 0 0 0
87 5 8.2340623636781878e+00 7.2352986677092854e+00 1.0451658289305833e+01 0 0 0
88 6 8.2329518408296849e+00 7.2132499823194269e+00 1.3570375958193823e+01 0 0 0
89 4 7.1621768180972616e+00 8.6685143983949526e+00 1.2026560514499007e+01 0 0 0
90 5 1.0726316902044976e+01 9.0999593357093396e+00 1.0453540362047491e+01 0 0 0
91 6 1.0735647119457457e+01 9.0813462699289733e+00 1.3572612940116697e+01 0 0 0
92 4 9.6595078192963690e+00 1.0536338864920053e+01 1.2027688495732649e+01 0 0 0
93 5 1.3227308361717391e+01 1.0941785588221846e+01 1.0444020988182565e+01 0 0 0
94 6 1.3225757057274937e+01 1.0939450182229519e+01 1.3564973806337392e+01 0 0 0
95 4 5.3625268315274797e+00 6.2525879544236618e-01 1.2007294935977361e+01 0 1 0
96 5 8.9400854771688962e+00 1.0140856079065503e+00 1.0451658295079337e+01 0 1 0
97 6 8.9215460177715062e+00 1.0260716940402435e+00 1.3570375962057787e+01 0 1 0
98 4 7.8612433886240822e+00 2.4709005366578389e+00 1.1999992948176612e+01 0 1 0
99 4 5.0004049824677050e+00 3.7191551585695599e+00 1.1999992950703671e+01 0 0 0
100 5 8.5784990452857830e+00 4.1210650489414542e+00 1.0439105452482757e+01 0 0 0
101 6 8.5721119295340618e+00 4.1231830310260635e+00 1.3560078725192632e+01 0 0 0
102 4 7.5118445632091575e+00 5.5725865644003836e+00 1.1999992945743813e+01 0 0 0
103 5 1.1075139103370258e+01 5.9842920278908638e+00 1.0444020985121741e+01 0 0 0
104 6 1.1077937272818767e+01 5.9841162640439345e+00 1.3564973804340880e+01 0 0 0
105 4 1.0016616303843175e+01 7.4363427091432444e+00 1.2008445856533736e+01 0 0 0
106 5 1.3582328863266616e+01 7.8417611536925973e+00 1.0440490817476176e+01 0 0 0
107 6 1.3582328861954448e+01 7.8417611550152131e+00 1.3562629714171468e+01 0 0 0
108 4 1.2515871222383854e+01 9.2903147506494435e+00 1.2004829437774568e+01 0 0 0
109 4 1.5014082569087842e+01 1.1132467932253141e+01 1.2008445861263320e+01 0 0 0
110 4 1.0717229515455898e+01 1.2257579047757496e+00 1.2026560517442261e+01 0 1 0
111 5 1.1425963402042807e+01 2.8704262810463890e+00 1.0464085706327451e+01 0 0 0
112 6 1.1420771976906419e+01 2.8900171859232886e+00 1.3580438180739336e+01 0 0 0
113 4 1.0359575410228596e+01 4.3314555688358842e+00 1.2007294932429852e+01 0 0 0
114 4 1.2861073362037015e+01 6.1939049621306967e+00 1.2004829438629198e+01 0 0 0

Velocities

1 -1.1925958006992438e-07 -1.7064535639308292e-06 -1.0355489793193832e-04
2 -1.2485378502736552e-06 -7.1501421967724747e-07 -1.0202123825014725e-04
3 -1.4181422716121081e-06 9.5652247614491344e-07 -1.0355489645041423e-04
4 5.1187435311726690e-09 1.4387717744706704e-06 -1.0202123608659995e-04
5 -8.2334614450179620e-07 1.6058355023033583e-06 -9.7031173649668985e-05
6 8.0060204896742163e-08 1.6205943051802797e-06 -9.5093318701086130e-05
7 8.2876981549874623e-07 -9.4724771764366605e-07 -9.4844277236466980e-05
8 -8.0570037520792304e-07 -5.4300735737359906e-07 -9.3013783730375789e-05
9 2.4496724860788405e-06 -1.5180055920460198e-06 -9.9661402511843348e-05
10 -5.1568543594485148e-07 -1.8172650195521463e-06 -9.7706511052149413e-05
11 1.3994998880354311e-06 -1.3791060051453946e-06 3.7103851361270165e-05
12 1.5375044861340562e-06 7.4989804739613203e-07 -1.0355489750464229e-04
13 1.2435236111765342e-06 -7.2382046600360876e-07 -1.0202123698620988e-04
14 2.3048695122893083e-11 -1.0516291752567665e-11 4.4258346164578897e-05
15 8.9834650239093073e-08 2.8804367147170235e-06 -9.9661399252572619e-05
16 1.8316764937677470e-06 4.6197802431788733e-07 -9.7706507718135034e-05
17 -1.7883530707839348e-06 1.4858136115061710e-06 3.7279823159118505e-05
18 -7.3673828122736252e-08 1.0890128276342304e-06 -9.5059756028067786e-05
19 -5.2397508802302672e-08 -3.6953232652267075e-07 -9.3223963245688939e-05
20 -1.0338200202494886e-06 4.9154720424331815e-07 2.8295181895020038e-05
21 -9.7898188881049535e-07 -1.5159995429881565e-06 -9.7031173908533367e-05
22 -1.4434702997814249e-06 -7.4101963347500458e-07 -9.5093319079769272e-05
23 -1.5754129093862918e-06 -2.0866811427528361e-07 -9.7177185952520737e-05
24 -1.1170843024821238e-06 2.0970620200851697e-06 -9.5104184269676005e-05
25 -6.4236420509586470e-07 -2.0904245957350494e-07 2.7741508520605454e-05
26 9.8000449594124126e-07 -4.8069276082080108e-07 -9.5059757650207274e-05
27 -2.9376145139307700e-07 2.3014908247323173e-07 -9.3223964036688014e-05
28 1.2563859715211461e-06 4.0866887556976214e-08 2.9972923731254496e-05
29 1.8024246730662417e-06 -8.9870619084962347e-08 -9.7031174099495806e-05
30 1.3635095359984732e-06 -8.7962921722770651e-07 -9.5093319316207203e-05
31 2.1809702193299388e-06 8.0585702754801936e-07 3.7279816313803771e-05
32 6.0705228158216827e-07 1.4686886313170355e-06 -9.7177184992888434e-05
33 2.3747154819627368e-06 -8.1108454560247728e-08 -9.5104182730728419e-05
34 4.9461652907546505e-07 1.9015216763585882e-06 3.7103852442446296e-05
35 4.0599160609298823e-07 1.1913163117159219e-06 -9.4844275028274123e-05
36 8.7314427228215391e-07 -4.2630767565640691e-07 -9.3013782583475059e-05
37 -6.6356025871602123e-07 1.0675973025059581e-06 2.9972925794532724e-05
38 9.6845527102026820e-07 -1.2600558321172669e-06 -9.7177188500270441e-05
39 -1.2575314610321094e-06 -2.0160085729565077e-06 -9.5104186537083688e-05
40 -4.0944622362167087e-08 -1.4290589154409435e-06 2.9971759868619851e-05
41 -3.9255115219912538e-07 -2.2917015092338792e-06 3.7279819697693646e-05
42 -1.8940495901868310e-06 -5.2244637677291667e-07 3.7103856894501970e-05
43 -1.2170898102938671e-06 7.4999276734076086e-07 2.9971763250413089e-05
44 3.1388259576569674e-11 -1.1776870945223103e-11 -9.3943823431841204e-05
45 3.2522175871630568e-11 -1.6868510878040060e-11 -9.2294419370877957e-05
46 9.4264081137369040e-07 6.4954440069254060e-07 2.8295178581947813e-05
47 -9.0623659123331455e-07 -6.0835561219036514e-07 -9.5059754132046590e-05
48 3.4625718665564468e-07 1.3933069424549778e-07 -9.3223961059319446e-05
49 1.2580974455824662e-06 6.7903649863668558e-07 2.9971756794506198e-05
50 -1.2346692909049812e-06 -2.4410505229665119e-07 -9.4844274086168111e-05
51 -6.7345717011549631e-08 9.6926174309023062e-07 -9.3013780890719775e-05
52 1.4018706007343846e-07 6.6082767514256581e-07 2.7741506103363663e-05
53 5.0224104424294637e-07 -4.5181469443510918e-07 2.7741506310595003e-05
54 9.1240695450824361e-08 -1.1411211061224364e-06 2.8295178835095644e-05
55 -2.5394086160302091e-06 -1.3624650602116945e-06 -9.9661399006126581e-05
56 -1.3158894200442775e-06 1.3552286306712152e-06 -9.7706507175144590e-05
57 -5.9276178030754498e-07 -1.1084938550413271e-06 2.9972924865730245e-05
58 -1.4435322983517011e-06 7.4100841678770561e-07 9.5093658917364416e-05
59 -9.7905616209980407e-07 1.5160016348722552e-06 9.7031513098702699e-05
60 -1.2486063249450227e-06 7.1500234621364878e-07 1.0202160804277189e-04
61 -1.1933596484819392e-07 1.7064598971029676e-06 1.0355525757530276e-04
62 1.2434549576555455e-06 7.2381512304841881e-07 1.0202160562217774e-04
63 1.5374344188466162e-06 -7.4988552586510664e-07 1.0355525550708995e-04
64 1.3634448276514624e-06 8.7962537685659368e-07 9.5093654096386002e-05
65 1.8023572055692951e-06 8.9881176247010159e-08 9.7031510052698943e-05
66 3.4620100373410832e-07 -1.3934057421208582e-07 9.3224290737628377e-05
67 -9.0630624799036915e-07 6.0835736177285730e-07 9.5060088313732197e-05
68 9.1199924523756323e-08 1.1411219839630919e-06 -2.8295438047010773e-05
69 -1.3159471329319044e-06 -1.3552441120956710e-06 9.7706858462575931e-05
70 -2.5394788591225289e-06 1.3624641033204400e-06 9.9661749006720490e-05
71 -3.9259372096626479e-07 2.2917056188106663e-06 -3.7280095673806417e-05
72 5.0556530110319169e-09 -1.4387795956250280e-06 1.0202160707055851e-04
73 -1.4182085991356407e-06 -9.5651702368442220e-07 1.0355525717845034e-04
74 -2.3334513282903860e-11 1.0698017117228227e-11 -4.4258639611636057e-05
75 1.8316137601378831e-06 -4.6197854014131168e-07 9.7706858010712314e-05
76 8.9771109367771649e-08 -2.8804280488791830e-06 9.9661746829251348e-05
77 4.9456817442217240e-07 -1.9015260152450085e-06 -3.7104135591724503e-05
78 8.7308204491875613e-07 4.2630536185571230e-07 9.3014106089109896e-05
79 4.0592645932154207e-07 -1.1913106708225483e-06 9.4844604907515139e-05
80 2.1809303718646715e-06 -8.0586056699911462e-07 -3.7280100458945615e-05
81 2.3746559305559208e-06 8.1104186894919620e-08 9.5104519123739346e-05
82 6.0698647651499289e-07 -1.4686806919778222e-06 9.7177522964492073e-05
83 1.2580564283412619e-06 -6.7903972170850936e-07 -2.9972024750730637e-05
84 -6.7402288924459471e-08 -9.6927049730169111e-07 9.3014105950328590e-05
85 -1.2347340837270819e-06 2.4410557413848154e-07 9.4844606134955855e-05
86 -5.9280396273090149e-07 1.1084962715348382e-06 -2.9973186907734914e-05
87 -1.1171443727438710e-06 -2.0970690406134638e-06 9.5104520158345598e-05
88 -1.5754736989765619e-06 2.0867006498712986e-07 9.7177523026798244e-05
89 -1.8940956140373162e-06 5.2245004185676505e-07 -3.7104127720642123e-05
90 7.9998449703091424e-08 -1.6205956871438795e-06 9.5093655988691297e-05
91 -8.2340693513176390e-07 -1.6058304992480991e-06 9.7031511892636189e-05
92 -1.7884039103701050e-06 -1.4858139380688701e-06 -3.7280097312677456e-05
93 -5.2460995250465827e-08 3.6953057489835512e-07 9.3224291404140307e-05
94 -7.3740346958272178e-08 -1.0890079370234926e-06 9.5060088437645961e-05
95 -6.6360896500927480e-07 -1.0675990155914806e-06 -2.9973190925405940e-05
96 -1.2576010098265091e-06 2.0160032877548372e-06 9.5104520456453111e-05
97 9.6838174005992986e-07 1.2600622899775251e-06 9.7177523771644188e-05
98 5.0219969170589405e-07 4.5181472729804555e-07 -2.7741766941418862e-05
99 1.4014251739080447e-07 -6.6082952890246453e-07 -2.7741768746255164e-05
100 -8.0576619805926072e-07 5.4300404568949656e-07 9.3014105316752892e-05
101 8.2870494864913699e-07 9.4725339849127673e-07 9.4844603342297688e-05
102 -6.4240539947506698e-07 2.0904441644914102e-07 -2.7741764134691372e-05
103 -2.9382654111370695e-07 -2.3015102004805697e-07 9.3224287838722733e-05
104 9.7994205904106196e-07 4.8070069099404639e-07 9.5060085300420957e-05
105 -1.2171328984779094e-06 -7.4999115661303196e-07 -2.9972018807714159e-05
106 -2.8658946464124505e-11 1.3096941604370112e-11 9.2294743904409028e-05
107 -3.4710181100456526e-11 1.6410489473695129e-11 9.3944150894417709e-05
108 -1.0338647857514682e-06 -4.9154708896942487e-07 -2.8295437950901672e-05
109 -4.0986975926528072e-08 1.4290605478973346e-06 -2.9972022471995941e-05
110 1.3994607121568291e-06 1.3791069372238180e-06 -3.7104132177411468e-05
111 -5.1575776946328394e-07 1.8172603237787861e-06 9.7706856933805995e-05
112 2.4496007278802748e-06 1.5180177558338144e-06 9.9661744767660460e-05
113 1.2563485635017275e-06 -4.0867350889037996e-08 -2.9973187166090246e-05
114 9.4260225485467319e-07 -6.4954596904940688e-07 -2.8295438167091473e-05
