LAMMPS data file via write_data, version 30 Mar 2018, timestep = 846

222 atoms
6 atom types

0.0000000000000000e+00 1.8954028000000001e+01 xlo xhi
0.0000000000000000e+00 1.6414670999999998e+01 ylo yhi
0.0000000000000000e+00 1.0000000000000000e+02 zlo zhi
9.4770129999999995e+00 0.0000000000000000e+00 0.0000000000000000e+00 xy xz yz

Masses

1 95.94
2 32.066
3 32.066
4 95.94
5 32.066
6 32.066

Atoms # atomic

1 2 1.7165175564011811e+01 1.3982841538522534e-01 4.1412923910503938e+00 -1 1 0
2 3 1.7153245657618825e+01 1.4396862895724349e-01 7.2614276968102898e+00 -1 1 0
3 2 1.0154521576082620e+00 1.4790770079176219e+00 4.1412921907245028e+00 0 1 0
4 3 1.0250029559157321e+00 1.4873386724067639e+00 7.2614274822855238e+00 0 1 0
5 2 2.3563695891317039e+01 1.2139935808100354e+01 4.1322907497921681e+00 -1 0 0
6 3 2.3577662158234023e+01 1.2136018462353007e+01 7.2523252939183074e+00 -1 0 0
7 2 2.6391193117652218e+01 1.3469183376704919e+01 4.1329445228401447e+00 -1 0 0
8 3 2.6394850231682774e+01 1.3453767530955782e+01 7.2525858024605334e+00 -1 0 0
9 1 2.5609743928845244e+01 1.5081606178690411e+01 5.6984839991554566e+00 -1 0 0
10 2 1.0250136148517203e+01 1.4795524203901330e+01 4.1412923587387285e+00 0 0 0
11 3 1.0252515648569048e+01 1.4783122545515274e+01 7.2614276652709986e+00 0 0 0
12 1 2.8430948759646341e+01 1.6414590545800817e+01 5.7057138529381275e+00 -1 0 0
13 2 1.3047595639792743e+01 1.6120813496008743e+01 4.1329442304998105e+00 0 0 0
14 3 1.3059117614466881e+01 1.6131688897265171e+01 7.2525854930761930e+00 0 0 0
15 1 2.8123178509676912e+00 1.3411888912436116e+00 5.6907419216861506e+00 0 1 0
16 2 6.3738543407986121e+00 1.0286603779565797e+00 4.1004923187562117e+00 0 1 0
17 3 6.3865220502665441e+00 1.0627401060497152e+00 7.2175881188382629e+00 0 1 0
18 1 5.6226893272900886e+00 2.6774645533296373e+00 5.6488717790603609e+00 0 1 0
19 2 9.2006828906031419e+00 2.3485198898398720e+00 4.0685295947539375e+00 0 1 0
20 3 9.1948829180919418e+00 2.3834033165814166e+00 7.1830732077983805e+00 0 1 0
21 2 2.0486924417475713e+01 7.7043437940077855e+00 4.1345815199057689e+00 -1 0 0
22 3 2.0510626254209516e+01 7.6982560967378326e+00 7.2548040576541659e+00 -1 0 0
23 2 2.3302521886561635e+01 9.0491055987528455e+00 4.1135879217656433e+00 -1 0 0
24 3 2.3339649989212170e+01 9.0376690341223433e+00 7.2319644566700303e+00 -1 0 0
25 1 2.2543823062451189e+01 1.0663246833700599e+01 5.6921884366566644e+00 -1 0 0
26 2 7.1808636234841625e+00 1.0380219801370046e+01 4.1004927279032994e+00 0 0 0
27 3 7.2040433418671936e+00 1.0352209261105701e+01 7.2175885567550653e+00 0 0 0
28 1 2.5365755593641300e+01 1.1987723142656407e+01 5.6825692478145040e+00 -1 0 0
29 2 1.0009399264645873e+01 1.1701009609390661e+01 4.1122674025248545e+00 0 0 0
30 3 1.0011676688989011e+01 1.1664089516153128e+01 7.2300378706018629e+00 0 0 0
31 1 9.2322890246000018e+00 1.3308336875281590e+01 5.6907423425439321e+00 0 0 0
32 2 1.2816870329766987e+01 1.3018633604314100e+01 4.1316302337013786e+00 0 0 0
33 3 1.2811355460901790e+01 1.2998505443557056e+01 7.2512456473647973e+00 0 0 0
34 1 1.2041921383600794e+01 1.4637847288317349e+01 5.6984839138878671e+00 0 0 0
35 2 1.5612506544447925e+01 1.4336752523538010e+01 4.1322906801343136e+00 0 0 0
36 3 1.5608915847568785e+01 1.4350806717847274e+01 7.2523252249756256e+00 0 0 0
37 1 1.4843296580423466e+01 1.5973488516278698e+01 5.6825689460286615e+00 0 0 0
38 2 1.8419831090915320e+01 1.5655984183759845e+01 4.1135878534623220e+00 0 0 0
39 3 1.8411171190669329e+01 1.5693856431478547e+01 7.2319643819076393e+00 0 0 0
40 1 8.1724053470524343e+00 8.8849482648516231e-01 5.6496950733741791e+00 0 1 0
41 2 1.1771576928361499e+01 5.6405793008101390e-01 4.1008112723201746e+00 0 1 0
42 3 1.1746918815756567e+01 5.9915399680265380e-01 7.2178046188954363e+00 0 1 0
43 1 1.0992921420088189e+01 2.2087295930155291e+00 5.6317757591217772e+00 0 1 0
44 2 1.4605616220795710e+01 1.8955702603756246e+00 4.1122673407182635e+00 0 1 0
45 3 1.4572503675885480e+01 1.9120577168295920e+00 7.2300378021852785e+00 0 1 0
46 2 2.0224945170327604e+01 4.5903795103688863e+00 4.1316299555203368e+00 -1 0 0
47 3 2.0245134663397771e+01 4.5956677155193466e+00 7.2512453385673457e+00 -1 0 0
48 1 1.9473886260612300e+01 6.2187351368413282e+00 5.6956041381191227e+00 -1 0 0
49 2 4.0796450710416972e+00 5.9379561809172614e+00 4.1008110178200301e+00 0 0 0
50 3 4.1223683221626208e+00 5.9417624045278545e+00 7.2178043470987161e+00 0 0 0
51 1 2.2292036653438224e+01 7.5652052701657508e+00 5.6759903117205051e+00 -1 0 0
52 2 6.9104814552539056e+00 7.2721847026091719e+00 4.0685296660418171e+00 0 0 0
53 3 6.9435911759617541e+00 7.2597654418985202e+00 7.1830732855503525e+00 0 0 0
54 1 6.1602012632909142e+00 8.8927115370928469e+00 5.6496952871970452e+00 0 0 0
55 2 9.7524097889246573e+00 8.5940296410709873e+00 4.0682741853780584e+00 0 0 0
56 3 9.7555563086634418e+00 8.5599084179445697e+00 7.1827071704165242e+00 0 0 0
57 1 8.9843521912567201e+00 1.0206345581346893e+01 5.6488723973699022e+00 0 0 0
58 2 1.2579542380950297e+01 9.9124154243759630e+00 4.1008117157650075e+00 0 0 0
59 3 1.2561477079959349e+01 9.8735129926952645e+00 7.2178051046655662e+00 0 0 0
60 1 1.1800069427849358e+01 1.1523804227479570e+01 5.6740937238143054e+00 0 0 0
61 2 1.5382652713809239e+01 1.1234770683307728e+01 4.1345818301950379e+00 0 0 0
62 3 1.5365529891409214e+01 1.1217288638795390e+01 7.2548044009017225e+00 0 0 0
63 1 1.4602597148747135e+01 1.2854892121100420e+01 5.6956042497424511e+00 0 0 0
64 2 1.8179737756400954e+01 1.2561550177781346e+01 4.1437159959678898e+00 0 0 0
65 3 1.8172747624030212e+01 1.2573129252762959e+01 7.2649034452317229e+00 0 0 0
66 1 1.7401293103551005e+01 1.4191861238361515e+01 5.6921883992444773e+00 0 0 0
67 2 2.0992227815507199e+01 1.3889986159568593e+01 4.1345814964816334e+00 0 0 0
68 3 2.0985649049789750e+01 1.3913556233038944e+01 7.2548040309922497e+00 0 0 0
69 1 2.0210169017818664e+01 1.5522828341896586e+01 5.6759903748137814e+00 0 0 0
70 2 2.3819989492932102e+01 1.5220087501716096e+01 4.1316301263060673e+00 0 0 0
71 3 2.3805315104239490e+01 1.5234927647501337e+01 7.2512455205105395e+00 0 0 0
72 1 1.3556816851561887e+01 4.3340680500993117e-01 5.6740934787043287e+00 0 1 0
73 1 1.6386157443267340e+01 1.7649037712554931e+00 5.6907423450775640e+00 0 1 0
74 1 1.9210139956466367e+01 3.1096471358978595e+00 5.6984838641169731e+00 -1 0 0
75 2 3.8157487552601070e+00 2.8178496864101090e+00 4.1122668060752456e+00 0 0 0
76 3 3.8465838754793156e+00 2.8382822491358848e+00 7.2300372260210981e+00 0 0 0
77 1 3.0738780586978161e+00 4.4572184098728762e+00 5.6740930981242723e+00 0 0 0
78 2 6.6349672365413177e+00 4.1487798459835910e+00 4.0682736199300580e+00 0 0 0
79 3 6.6629434167632757e+00 4.1685654365248750e+00 7.1827065660047120e+00 0 0 0
80 1 5.8933002592314683e+00 5.7899554662130033e+00 5.6317754919427871e+00 0 0 0
81 2 9.4769216913323913e+00 5.4714764606392920e+00 4.0467561911412169e+00 0 0 0
82 3 9.4769214113432483e+00 5.4714761994395529e+00 7.1597465862834095e+00 0 0 0
83 1 8.7189990079664490e+00 7.1045149717968048e+00 5.6104761737679487e+00 0 0 0
84 2 1.2319600446397516e+01 6.7937248477359695e+00 4.0685301788977632e+00 0 0 0
85 3 1.2292290135089017e+01 6.7712601587583325e+00 7.1830738363145255e+00 0 0 0
86 1 1.1544542846864676e+01 8.4157440771071883e+00 5.6317761932155550e+00 0 0 0
87 2 1.5139452232525421e+01 8.1240107906135375e+00 4.1135884899362978e+00 0 0 0
88 3 1.5110984021511067e+01 8.0975751742980311e+00 7.2319650755291134e+00 0 0 0
89 1 1.4359599566986972e+01 9.7410668866594818e+00 5.6759909387091732e+00 0 0 0
90 2 1.7939357046712125e+01 9.4633008837869443e+00 4.1437161888646870e+00 0 0 0
91 3 1.7932824799621429e+01 9.4514579480286507e+00 7.2649036548734820e+00 0 0 0
92 1 1.7163962782950321e+01 1.1081995374800572e+01 5.7050507952819434e+00 0 0 0
93 2 2.0742710025322395e+01 1.0804249602426825e+01 4.1437159606458538e+00 0 0 0
94 3 2.0756232765996927e+01 1.0804513939836028e+01 7.2649034055119825e+00 0 0 0
95 1 1.9969265429564047e+01 1.2423714130022754e+01 5.7050505709140236e+00 0 0 0
96 1 2.2785321754825542e+01 1.3755473378231887e+01 5.6956040978394755e+00 0 0 0
97 1 8.4416299599253577e+00 3.9985768749523554e+00 5.6104759246926825e+00 0 0 0
98 2 1.2043387774402461e+01 3.6716199513040446e+00 4.0682741175668369e+00 0 0 0
99 3 1.2012264510377637e+01 3.6859550338007514e+00 7.1827070978799421e+00 0 0 0
100 1 1.1270135673571174e+01 5.3113371319987328e+00 5.6104763509147126e+00 0 0 0
101 2 1.4876046423108662e+01 5.0055493443388439e+00 4.1004930317790853e+00 0 0 0
102 3 1.4840198837521482e+01 4.9994799938691079e+00 7.2175888892348983e+00 0 0 0
103 1 1.4098157803491681e+01 6.6332229145601032e+00 5.6496958393891168e+00 0 0 0
104 2 1.7685602544377478e+01 6.3524122914227181e+00 4.1322909947164499e+00 0 0 0
105 3 1.7675227203419535e+01 6.3422757096184954e+00 7.2523255633247272e+00 0 0 0
106 1 1.6916688963727061e+01 7.9739925588530651e+00 5.6921888522001431e+00 0 0 0
107 1 1.9728576810583007e+01 9.3233912421860659e+00 5.7050506569910677e+00 0 0 0
108 1 1.3823722953470279e+01 3.5306191117766299e+00 5.6488724699264363e+00 0 0 0
109 2 1.7423016220603387e+01 3.2391037361220030e+00 4.1329445557224007e+00 0 0 0
110 3 1.7407837400174742e+01 3.2436443441428300e+00 7.2525858428656260e+00 0 0 0
111 1 1.6652753112833096e+01 4.8678888476559177e+00 5.6825694827034257e+00 0 0 0
112 5 1.7928837633793208e+01 1.4873421793645238e+00 1.0417620953746807e+01 -1 1 0
113 6 1.7938388081076987e+01 1.4790806253027124e+00 1.3537756258008821e+01 -1 1 0
114 5 2.2542337298304520e+01 1.1217292213582487e+01 1.0424244512320662e+01 -1 0 0
115 6 2.2525214423687778e+01 1.1234774556895067e+01 1.3544467051875284e+01 -1 0 0
116 4 2.3305269777110002e+01 1.2854895966218178e+01 1.1983444502484769e+01 -1 0 0
117 5 2.5096511391716874e+01 1.2998509186322602e+01 1.0427803032553836e+01 -1 0 0
118 6 2.5090996659138629e+01 1.3018637578415138e+01 1.3547418431326797e+01 -1 0 0
119 4 2.5865945390620844e+01 1.4637851172235946e+01 1.1980564613136016e+01 -1 0 0
120 5 8.7013232044967186e+00 1.4783126309133852e+01 1.0417620875693760e+01 0 0 0
121 6 8.7037026389851597e+00 1.4795527969894836e+01 1.3537756183121752e+01 0 0 0
122 4 2.8430945950501730e+01 1.6414594291872646e+01 1.1973334762751527e+01 -1 0 0
123 5 1.8005952590895400e+00 1.4397236474456951e-01 1.0417621103474433e+01 0 1 0
124 6 1.7886650538384634e+00 1.3983195981225627e-01 1.3537756394312561e+01 0 1 0
125 4 2.5676831398635960e+00 1.7649074508258666e+00 1.1988306683172581e+01 0 1 0
126 5 4.3813369976872663e+00 1.9120615545943433e+00 1.0449011360761126e+01 0 1 0
127 6 4.3482243117524924e+00 1.8955738817463044e+00 1.3566781779839229e+01 0 1 0
128 5 2.0232640944830028e+01 6.3422790633491894e+00 1.0426723321845026e+01 -1 0 0
129 6 2.0222265051766612e+01 6.3524158037635328e+00 1.3546757869585377e+01 -1 0 0
130 4 2.0991178666772118e+01 7.9739961204262562e+00 1.1986860152196732e+01 -1 0 0
131 5 2.2796883655257027e+01 8.0975787718646082e+00 1.0447084116216233e+01 -1 0 0
132 6 2.2768415301651444e+01 8.1240145821345990e+00 1.3565460651859738e+01 -1 0 0
133 4 2.3548267804929516e+01 9.7410707092617077e+00 1.2003058151377331e+01 -1 0 0
134 5 6.3923621484800863e+00 9.8735168896482648e+00 1.0461243867841336e+01 0 0 0
135 6 6.3742971161785409e+00 9.9124194536916743e+00 1.3578237222896533e+01 0 0 0
136 4 7.1537697729688441e+00 1.1523808234055615e+01 1.2004955056614907e+01 0 0 0
137 5 8.9421624134895925e+00 1.1664093542006913e+01 1.0449010709928395e+01 0 0 0
138 6 8.9444401050530793e+00 1.1701013550048836e+01 1.3566781177509126e+01 0 0 0
139 4 9.7215501049836384e+00 1.3308340826974609e+01 1.1988306222316105e+01 0 0 0
140 5 1.1513016966938514e+01 1.3453771505472998e+01 1.0426462715964284e+01 0 0 0
141 6 1.1516674060356216e+01 1.3469187037266503e+01 1.3546104004371973e+01 0 0 0
142 4 1.2298123106372131e+01 1.5081609992946289e+01 1.1980564741820126e+01 0 0 0
143 5 1.4102552016501640e+01 1.5234931571855991e+01 1.0427803269130848e+01 0 0 0
144 6 1.4087877513419915e+01 1.5220091064477774e+01 1.3547418649049328e+01 0 0 0
145 4 5.3970239407202971e+00 4.3341063698088417e-01 1.2004955540354754e+01 0 1 0
146 5 7.2069218677714897e+00 5.9915799443880324e-01 1.0461244297160146e+01 0 1 0
147 6 7.1822639232181986e+00 5.6406171402422656e-01 1.3578237621318854e+01 0 1 0
148 4 7.9609190196438213e+00 2.2087336143656060e+00 1.2047273166677190e+01 0 1 0
149 5 9.7589572327527225e+00 2.3834073905871382e+00 1.0495975375503065e+01 0 1 0
150 6 9.7531577450442786e+00 2.3485239481483866e+00 1.3610518990185222e+01 0 1 0
151 4 1.8697728319662680e+01 3.1096507122009549e+00 1.1980564713356339e+01 -1 0 0
152 5 2.0500031160189902e+01 3.2436478323273907e+00 1.0426463083064226e+01 -1 0 0
153 6 2.0484851839462674e+01 3.2391072331829944e+00 1.3546104346209740e+01 -1 0 0
154 4 2.1255114984427905e+01 4.8678924291103085e+00 1.1996479623913295e+01 -1 0 0
155 5 4.1136413400937091e+00 4.9994836993409519e+00 1.0461460410502495e+01 0 0 0
156 6 4.0777935915160555e+00 5.0055530530732657e+00 1.3578556214642454e+01 0 0 0
157 4 4.8556820426776177e+00 6.6332267473270905e+00 1.2029353453544772e+01 0 0 0
158 5 6.6615495242906482e+00 6.7712641849649522e+00 1.0495975295253320e+01 0 0 0
159 6 6.6342395613098599e+00 6.7937288741397115e+00 1.3610518914028425e+01 0 0 0
160 4 7.4092967798815241e+00 8.4157481727590113e+00 1.2047272757947097e+01 0 0 0
161 5 9.1982830639725570e+00 8.5599126082507411e+00 1.0496341410982049e+01 0 0 0
162 6 9.2014301103377658e+00 8.5940337254384094e+00 1.3610774396685631e+01 0 0 0
163 4 9.9694873073267054e+00 1.0206349700652483e+01 1.2030176070793868e+01 0 0 0
164 5 1.1749796076010114e+01 1.0352213361709193e+01 1.0461459653469914e+01 0 0 0
165 6 1.1772976030872989e+01 1.0380223621182356e+01 1.3578555513830267e+01 0 0 0
166 4 1.2542111804474295e+01 1.1987727075809266e+01 1.1996479103576991e+01 0 0 0
167 5 1.4330205317216592e+01 1.2136022365026847e+01 1.0426723028639413e+01 0 0 0
168 6 1.4344171480361414e+01 1.2139939372777315e+01 1.3546757595969741e+01 0 0 0
169 4 1.5122545430915533e+01 1.3755477169503422e+01 1.1983444500880436e+01 0 0 0
170 5 1.6922218150757956e+01 1.3913560053529507e+01 1.0424244583714790e+01 0 0 0
171 6 1.6915639302306797e+01 1.3889989786045698e+01 1.3544467116472719e+01 0 0 0
172 4 1.7697697810735320e+01 1.5522832201698632e+01 1.2003058372760993e+01 0 0 0
173 5 1.9496695481167478e+01 1.5693860274453213e+01 1.0447084220570128e+01 0 0 0
174 6 1.9488035775099931e+01 1.5655988084996034e+01 1.3565460748765638e+01 0 0 0
175 4 1.0781435103263398e+01 8.8849882939165126e-01 1.2029353422378037e+01 0 1 0
176 5 1.2567318210860478e+01 1.0627439127085363e+00 1.0461460131470291e+01 0 1 0
177 6 1.2579986205319972e+01 1.0286644030386785e+00 1.3578555953716920e+01 0 1 0
178 4 1.3331150857071442e+01 2.6774685213881542e+00 1.2030176306949524e+01 0 1 0
179 4 5.1301173740649855e+00 3.5306229554045632e+00 1.2030176808701587e+01 0 0 0
180 5 6.9415756363064283e+00 3.6859591025398428e+00 1.0496342015530052e+01 0 0 0
181 6 6.9104526978481369e+00 3.6716238888825625e+00 1.3610774961699304e+01 0 0 0
182 4 7.6837043639079878e+00 5.3113412372561362e+00 1.2068572653032513e+01 0 0 0
183 5 9.4769183005081157e+00 5.4714804011251834e+00 1.0519301992664838e+01 0 0 0
184 6 9.4769186306270878e+00 5.4714805915549860e+00 1.3632292388583188e+01 0 0 0
185 4 1.0234840808074177e+01 7.1045191613698400e+00 1.2068572230382614e+01 0 0 0
186 5 1.2010248447253279e+01 7.2597695298211846e+00 1.0495974745979538e+01 0 0 0
187 6 1.2043358559643767e+01 7.2721886658672110e+00 1.3610518404061478e+01 0 0 0
188 4 1.2793638406886327e+01 8.8927155371806403e+00 1.2029352757197520e+01 0 0 0
189 5 1.4568217750113460e+01 9.0376728234177648e+00 1.0447083515027240e+01 0 0 0
190 6 1.4605345748726490e+01 9.0491092246255018e+00 1.3565460100254848e+01 0 0 0
191 4 1.5364044428020581e+01 1.0663250569990179e+01 1.1986859767561933e+01 0 0 0
192 5 1.7151634879111587e+01 1.0804517529541588e+01 1.0414144948123994e+01 0 0 0
193 6 1.7165157280049360e+01 1.0804253121360222e+01 1.3535332412711085e+01 0 0 0
194 4 1.7938601754846506e+01 1.2423717806532800e+01 1.1973997990258908e+01 0 0 0
195 5 1.9735119582789920e+01 1.2573132840614972e+01 1.0414145213882426e+01 0 0 0
196 6 1.9728129297993043e+01 1.2561553904818203e+01 1.3535332656838719e+01 0 0 0
197 4 2.0506573711525522e+01 1.4191865050162972e+01 1.1986860236304286e+01 0 0 0
198 5 2.2298950864445469e+01 1.4350810373419030e+01 1.0426723341243813e+01 0 0 0
199 6 2.2295360273711033e+01 1.4336756481518321e+01 1.3546757883155159e+01 0 0 0
200 4 2.3064569942845516e+01 1.5973492419651041e+01 1.1996479437551940e+01 0 0 0
201 5 2.4848748895466329e+01 1.6131692525712936e+01 1.0426462836552464e+01 0 0 0
202 6 2.4860270888884674e+01 1.6120817392146442e+01 1.3546104113396401e+01 0 0 0
203 4 1.6141522524280212e+01 1.3411926661641131e+00 1.1988306328645912e+01 0 1 0
204 4 1.0512210162648090e+01 3.9985810199713137e+00 1.2068572489912960e+01 0 0 0
205 5 1.2290896477806962e+01 4.1685694079872100e+00 1.0496341485477641e+01 0 0 0
206 6 1.2318873057723749e+01 4.1487838821236105e+00 1.3610774466545756e+01 0 0 0
207 4 1.3060539651031560e+01 5.7899594751861230e+00 1.2047272459461059e+01 0 0 0
208 5 1.4831471639402832e+01 5.9417660698605079e+00 1.0461243524804063e+01 0 0 0
209 6 1.4874194798066483e+01 5.9379598989762483e+00 1.3578236910749824e+01 0 0 0
210 4 1.5615831096167881e+01 7.5652089713149904e+00 1.2003057690596657e+01 0 0 0
211 5 1.7397241749620104e+01 7.6982595012687574e+00 1.0424244189316493e+01 0 0 0
212 6 1.7420943084591940e+01 7.7043472782909488e+00 1.3544466759445884e+01 0 0 0
213 4 1.8179290708387690e+01 9.3233947797624044e+00 1.1973997810211351e+01 0 0 0
214 5 1.9975042900140508e+01 9.4514613454728007e+00 1.0414145111030988e+01 0 0 0
215 6 1.9968510225331567e+01 9.4633044731382210e+00 1.3535332562974048e+01 0 0 0
216 4 2.0743904423170900e+01 1.1081999019400506e+01 1.1973998023798881e+01 0 0 0
217 5 1.5107256333223694e+01 2.8382858477764268e+00 1.0449010795759381e+01 0 0 0
218 6 1.5138091398143768e+01 2.8178534969136968e+00 1.3566781258381470e+01 0 0 0
219 4 1.5879961971722796e+01 4.4572221209216307e+00 1.2004954941772263e+01 0 0 0
220 5 1.7662733642921769e+01 4.5956710812251558e+00 1.0427802965477337e+01 0 0 0
221 6 1.7682922628865853e+01 4.5903830308815703e+00 1.3547418376915854e+01 0 0 0
222 4 1.8433981612146646e+01 6.2187386348161962e+00 1.1983444355980035e+01 0 0 0

Velocities

1 -9.2584945923527509e-07 1.3939081238953632e-06 9.9887711014566906e-06
2 8.9069290931261467e-07 5.7398895243551721e-07 8.8583958889997548e-06
3 1.6661656328482248e-06 1.0662827085508758e-07 9.9893425655184243e-06
4 4.7339673303424815e-08 -1.0568548914633367e-06 8.8589356571893314e-06
5 4.3694290796227226e-07 -1.8059732785578610e-06 1.4222652935102656e-05
6 -1.9324437473539614e-06 -1.6884965459678523e-06 1.3474193371301249e-05
7 -1.3355781962942146e-06 -2.0223339897643842e-06 1.3563877937001254e-05
8 -1.9240650306245630e-06 1.4082715673925238e-07 1.2594966800383432e-05
9 6.5766545826630200e-07 8.0992357725919838e-07 -5.2672492291249317e-05
10 -7.4459611886486705e-07 -1.4941681034719842e-06 9.9888414383267418e-06
11 -9.4293183778615371e-07 4.8888183900859449e-07 8.8584106439647641e-06
12 -1.9520538585005717e-09 2.5286060097905734e-09 -5.1913316688501312e-05
13 2.4189446876881031e-06 -1.4068348801176842e-07 1.3564789467352766e-05
14 8.3980222397153197e-07 -1.7324302113959533e-06 1.2595806109050507e-05
15 4.9521982303346813e-07 -2.3993531880350285e-06 -5.3755015191416772e-05
16 4.5860418621769590e-06 1.9776869508774224e-06 2.7421568125184142e-05
17 3.0808174142776304e-06 -3.5643272692961588e-06 2.7278944093717918e-05
18 1.1901340143777464e-06 -3.5449591396084619e-06 -5.9578289896015475e-05
19 2.6323634701629004e-06 3.9739945819996591e-06 4.1118228590758906e-05
20 4.1464283029489651e-06 -1.9316366837333819e-06 4.2206438796472440e-05
21 1.4962006919410975e-06 -2.2503344274889658e-06 1.3459351999834672e-05
22 -2.7265409585744338e-06 -1.1140148851503718e-06 1.2712520946743772e-05
23 2.1341335299119860e-06 -4.3080999344636288e-06 2.2203225635900135e-05
24 -4.2778434841370539e-06 -2.7632960015196722e-06 2.1859164355785687e-05
25 -1.1834101871960968e-06 -2.0511794347946690e-06 -5.3545664486576768e-05
26 -5.8487616062807686e-07 -4.9584724883673126e-06 2.7420261770404318e-05
27 -4.6312208102500997e-06 -8.8372213917323767e-07 2.7277698007655927e-05
28 -1.9629533075829351e-06 -6.0738103894271563e-07 -5.4818608685252134e-05
29 -3.0481601283612139e-06 -3.9295030971054013e-06 2.2253854085252228e-05
30 -3.2125774828303343e-06 1.9324713196737109e-06 2.1629278046826017e-05
31 -2.3305075080538921e-06 7.7316400036473718e-07 -5.3755190260628300e-05
32 -1.8620291259605549e-06 -1.5705430017748614e-06 1.4223798108853509e-05
33 -4.9348972492203709e-07 1.7989696144928878e-06 1.3306562908376549e-05
34 -1.0306945347133127e-06 1.7030633458109137e-07 -5.2672436262847279e-05
35 1.3452185435190125e-06 1.2863016857540014e-06 1.4222983523647436e-05
36 2.4282976687245030e-06 -8.2501179813136291e-07 1.3474427707303748e-05
37 1.5071712515433083e-06 -1.3905385345171023e-06 -5.4818525576157691e-05
38 2.6631839404501387e-06 4.0070958236403484e-06 2.2203565115929574e-05
39 4.5316564094574688e-06 -2.3184337681556133e-06 2.1859434212937689e-05
40 3.4753130098380142e-06 -1.4735972429212738e-06 -5.9531472123005821e-05
41 5.9448958365280236e-07 5.4108263025394624e-06 2.7350154626246764e-05
42 4.7281474386893612e-06 -6.6479046440980778e-07 2.7176891745899398e-05
43 3.8130493657746214e-06 6.7234662531754772e-07 -6.2087324688940234e-05
44 -1.8834758759794014e-06 4.6063219614219340e-06 2.2254132284460215e-05
45 3.2754774141245895e-06 1.8181640777183024e-06 2.1629632487223619e-05
46 2.2910862837843443e-06 -8.2306532666771629e-07 1.4224575378730944e-05
47 -1.3121210308066129e-06 -1.3228342312647580e-06 1.3307432797607936e-05
48 -9.5820998638478081e-07 -1.3692454067969506e-06 -5.2923378867305416e-05
49 4.3842186911406672e-06 -3.2187297731737422e-06 2.7350784133159768e-05
50 -2.9443868446541943e-06 -3.7603472089290752e-06 2.7177531460424813e-05
51 -1.9614375302976401e-06 -3.5572399602548283e-06 -5.5668901062631575e-05
52 2.1206090769916612e-06 -4.2650533325309598e-06 4.1117905002406084e-05
53 -3.7505234894222306e-06 -2.6227379122105891e-06 4.2206136009698521e-05
54 -3.0192232323467429e-06 -2.2703810143767432e-06 -5.9531475267133737e-05
55 -2.8078725887107368e-06 -3.8569851536242026e-06 4.1123031471887737e-05
56 -3.5591475186112335e-06 1.6617828786754260e-06 4.2150032620240372e-05
57 -3.6703823323702134e-06 7.4433726698935025e-07 -5.9578517286090303e-05
58 -4.9837124321998435e-06 -2.1856469936159899e-06 2.7348868258375783e-05
59 -1.7885040717084365e-06 4.4317864833674546e-06 2.7175556223643096e-05
60 -3.1030945400645423e-06 2.3490874092439354e-06 -5.5839949859076544e-05
61 -2.7006696403500578e-06 -1.6863910806144922e-07 1.3458546599536509e-05
62 3.9449561668451445e-07 2.9194582621364034e-06 1.2711634790381917e-05
63 -7.1140596048543320e-07 1.5164499031087246e-06 -5.2923448868759349e-05
64 5.0305405389177808e-07 1.4175727341700260e-06 9.8706980157451919e-06
65 1.8594927325559832e-06 -4.2038894421591971e-07 9.1028891855089624e-06
66 2.3676579062144774e-06 6.3484690964405300e-09 -5.3545712827279682e-05
67 1.2000479208108118e-06 2.4253696799737998e-06 1.3459437837341401e-05
68 2.3272787457634630e-06 -1.7995882171935068e-06 1.2712571060577404e-05
69 4.0606202698789316e-06 8.5698469445493390e-08 -5.5669007361691123e-05
70 -4.3352179747882766e-07 2.3999924472422909e-06 1.4224075683998420e-05
71 1.8007845628208398e-06 -4.7005480924683380e-07 1.3306930665149108e-05
72 3.5804845902728120e-06 1.5153223605569546e-06 -5.5839904213284500e-05
73 1.8293557563578865e-06 1.6339468904776438e-06 -5.3755255390905712e-05
74 3.6718190405611435e-07 -9.7257655235005868e-07 -5.2672425791640410e-05
75 4.9268369134078417e-06 -6.7039700277571319e-07 2.2255597147064624e-05
76 -6.7695114798277852e-08 -3.7441102602455500e-06 2.1631028367137544e-05
77 -4.8336834845348064e-07 -3.8564794693081694e-06 -5.5839661340382263e-05
78 4.7433662713323058e-06 -4.9829123789743197e-07 4.1124675234431812e-05
79 3.4026554273171094e-07 -3.9083296178134452e-06 4.2151687418458816e-05
80 -1.3298583194137729e-06 -3.6360626524619928e-06 -6.2087125074096998e-05
81 -1.9991093037762444e-09 2.1755464361856612e-09 5.0434225097764998e-05
82 -1.5763811662652418e-09 2.5917687278247300e-09 5.2589392890839377e-05
83 -2.0544696307739062e-06 -3.2546931158570222e-07 -6.5414752762186346e-05
84 -4.7585611486465171e-06 2.9756739375257231e-07 4.1116563273550392e-05
85 -4.0062869990752381e-07 4.5616881047875169e-06 4.2204782512066467e-05
86 -2.4894810773954025e-06 2.9721574592015846e-06 -6.2087457682957021e-05
87 -4.8020937437445521e-06 3.0744835799101726e-07 2.2201771184054969e-05
88 -2.5854518430396942e-07 5.0880278511916960e-06 2.1857682799855363e-05
89 -2.1050148853799166e-06 3.4794006952412606e-06 -5.5669237884678541e-05
90 -1.4792880802641956e-06 -2.6874873097488735e-07 9.8701487431727524e-06
91 -5.6648456720695781e-07 1.8245591374868324e-06 9.1023814452777876e-06
92 -3.6827890372334756e-07 1.4143192225996737e-06 -5.1844780753612241e-05
93 9.7196386029505795e-07 -1.1424363021655166e-06 9.8707273266098964e-06
94 -1.2977712499143296e-06 -1.3985556671315563e-06 9.1029680911947688e-06
95 1.4041238753792380e-06 -3.8592784530897690e-07 -5.1844668166938594e-05
96 1.6639190329368403e-06 -1.3957698625963993e-07 -5.2923370833102251e-05
97 1.3084619154275319e-06 -1.6102917923154164e-06 -6.5414685925829896e-05
98 -1.9410909632947694e-06 4.3617772599597274e-06 4.1123330091782351e-05
99 3.2141492288102803e-06 2.2539050684320240e-06 4.2150371394068617e-05
100 7.3954073175243771e-07 1.9444618624780050e-06 -6.5414885231881959e-05
101 -4.0061773936865654e-06 2.9872448072232135e-06 2.7419578242567343e-05
102 1.5456500129741550e-06 4.4547340226681945e-06 2.7277050792872685e-05
103 -4.6220437501962690e-07 3.7521889899301455e-06 -5.9531811826519383e-05
104 -1.7866205288845143e-06 5.2606999984191310e-07 1.4222087290461785e-05
105 -5.0064006746837554e-07 2.5194677842859954e-06 1.3473649023424266e-05
106 -1.1899020015944170e-06 2.0524783346875746e-06 -5.3545908761214016e-05
107 -1.0413264561156426e-06 -1.0209224760705011e-06 -5.1844690019774690e-05
108 2.4740496068600181e-06 2.8088722740023348e-06 -5.9578654269491454e-05
109 -1.0878023349674620e-06 2.1694045236205346e-06 1.3563891090081191e-05
110 1.0794105455750511e-06 1.5977235588169284e-06 1.2595022447871502e-05
111 4.4988763913990869e-07 2.0057449678960091e-06 -5.4818789102406535e-05
112 -9.1291953377923479e-08 -1.0333114244466780e-06 -1.5804273687399112e-05
113 -1.7061386868611053e-06 1.2095249948584007e-07 -1.7006377501041080e-05
114 -3.8104485776431803e-07 2.9340704321619454e-06 -1.9763918056533657e-05
115 2.8303207013209423e-06 -1.9224517048725599e-07 -2.0542131133051010e-05
116 7.0208466431813973e-07 1.4896639960263488e-06 5.8286780895567438e-05
117 4.7631681019380462e-07 1.7534596946081999e-06 -2.0394097505915612e-05
118 1.9315639186666336e-06 -1.6146113244769850e-06 -2.1354485110682411e-05
119 1.0539784699305539e-06 1.7183770098887182e-07 5.8040012903419029e-05
120 9.4105256188715822e-07 4.3298918171071968e-07 -1.5804116338456338e-05
121 7.4896815685039360e-07 -1.5425609628483377e-06 -1.7006166359358702e-05
122 1.8735430385098242e-09 -2.5868216012451985e-09 5.7221254216814307e-05
123 -8.4537771965264879e-07 5.9392355223024762e-07 -1.5804713176386090e-05
124 9.6207350669729181e-07 1.4157023919968004e-06 -1.7006781783183403e-05
125 -1.8977836983605976e-06 1.5729597313430150e-06 5.9209991387573626e-05
126 -3.2064953896960779e-06 1.9385074273229119e-06 -2.9012559735203611e-05
127 2.0047279719967087e-06 4.7245962474062888e-06 -2.9654489148486047e-05
128 5.7105514617668986e-07 2.6093964601339183e-06 -2.0560017992663166e-05
129 1.8955562025436876e-06 4.6676587644632232e-07 -2.1340842743031930e-05
130 1.0872028074457351e-06 2.0453386305030176e-06 5.8936416003954374e-05
131 3.6797248714123390e-07 5.1669120758331411e-06 -2.9230565968637048e-05
132 5.0220551282251282e-06 2.3036789407866586e-07 -2.9574521194715033e-05
133 1.9888800077885857e-06 3.4902644211236065e-06 6.1237538234574216e-05
134 1.8843813040859460e-06 4.4028858124787672e-06 -3.4736612641913817e-05
135 5.1604384414796127e-06 -2.3213891265287151e-06 -3.4895077268726638e-05
136 3.0419456845122658e-06 2.4155954026683724e-06 6.1450887381986593e-05
137 3.2861752350615683e-06 1.8055291209297013e-06 -2.9010914111705274e-05
138 3.0932756865653591e-06 -4.1001659867133129e-06 -2.9652788839723814e-05
139 2.3159884146478155e-06 8.5475332350544673e-07 5.9210235556274970e-05
140 1.9905733841189502e-06 3.4169352696395377e-08 -1.9665952518548383e-05
141 1.3086751620545017e-06 -2.1163815053712705e-06 -2.0686267282771462e-05
142 -6.7553253923306462e-07 8.2126692701440577e-07 5.8039958132216129e-05
143 -1.7566191918697367e-06 -4.6904921632126943e-07 -2.0394758597196261e-05
144 4.3285246612650433e-07 2.4758885280063792e-06 -2.1355118482284400e-05
145 -3.6125836594501206e-06 1.4209789319632395e-06 6.1450612572990477e-05
146 -4.7547506192880618e-06 -5.7440298943981677e-07 -3.4737687552571242e-05
147 -5.6960440564631410e-07 5.6251887420356643e-06 -3.4896127096020488e-05
148 -3.8142647070157040e-06 5.3702185324280271e-07 6.8159745491828692e-05
149 -4.2607088207322421e-06 -1.8644312073173889e-06 -5.0281285839124507e-05
150 -2.6810628803971514e-06 4.1712657275352834e-06 -4.9108604156193049e-05
151 -3.7275808327167003e-07 -1.0008778221013806e-06 5.8039949270140369e-05
152 -1.0247630210869563e-06 1.7026328353690557e-06 -1.9666833863650703e-05
153 1.1794611750114927e-06 2.1873219667559812e-06 -2.0687261856422874e-05
154 -5.6246602965441747e-07 1.9568966890278132e-06 6.0341161690296918e-05
155 -1.4298585324613259e-06 4.6027851610470553e-06 -3.4849535892977432e-05
156 4.2209393692721979e-06 3.0030739879862317e-06 -3.4977714391373756e-05
157 3.0211875029062000e-07 3.7221590809466871e-06 6.5402856322626261e-05
158 5.2050998185124485e-07 4.6204582872728133e-06 -5.0281172610887567e-05