LAMMPS data file via write_data, version 30 Mar 2018, timestep = 723

42 atoms
6 atom types

0.0000000000000000e+00 8.2441601841000001e+00 xlo xhi
0.0000000000000000e+00 7.1396526167000003e+00 ylo yhi
0.0000000000000000e+00 1.0000000000000000e+02 zlo zhi
4.1220792877000001e+00 0.0000000000000000e+00 0.0000000000000000e+00 xy xz yz

Masses

1 95.94
2 32.066
3 32.066
4 95.94
5 32.066
6 32.066

Atoms # atomic

1 2 6.4750202429513708e+00 3.4278842850080526e-01 4.0982965197198311e+00 -1 1 0
2 3 6.4801296083689914e+00 3.5266776511354425e-01 7.2120365672295597e+00 -1 1 0
3 2 1.1814352193341975e+00 1.3607271334898825e+00 4.0982965213796323e+00 0 1 0
4 3 1.1874362935625691e+00 1.3513626260669604e+00 7.2120365710074115e+00 0 1 0
5 2 4.1220811301704714e+00 2.3798842162121518e+00 4.0993316553432431e+00 0 1 0
6 3 4.1220811294238215e+00 2.3798842187360640e+00 7.2221074289714045e+00 0 1 0
7 2 1.0008124532418890e+01 4.4213634903094716e+00 4.1010257249250390e+00 -1 0 0
8 3 1.0008079104326828e+01 4.4229013131650969e+00 7.2222879414134589e+00 -1 0 0
9 1 9.4215695899676639e+00 6.1225390189688813e+00 5.6607121259705124e+00 -1 0 0
10 2 4.7097879345339644e+00 5.4361370882288025e+00 4.0982965189593568e+00 0 0 0
11 3 4.6986774982508086e+00 5.4356222574406408e+00 7.2120365618089783e+00 0 0 0
12 1 4.1220805931856157e+00 7.1396525601266356e+00 5.6534514782100045e+00 0 0 0
13 2 7.6552462433215691e+00 6.4566082270642076e+00 4.1010257258322609e+00 0 0 0
14 3 7.6539371664529918e+00 6.4557999733952789e+00 7.2222879419483439e+00 0 0 0
15 1 2.9494562709363499e+00 1.0167429232366560e+00 5.6584180101314061e+00 0 1 0
16 1 5.8889085231778280e+00 2.0459316449841269e+00 5.6584180076772492e+00 0 1 0
17 1 8.8356506853418164e+00 3.0587170313752146e+00 5.6607121266777272e+00 -1 0 0
18 1 3.5278785878518955e+00 4.0769778754086339e+00 5.6584180068259755e+00 0 0 0
19 2 7.0691120891255839e+00 3.4013335505800670e+00 4.1010257251295696e+00 0 0 0
20 3 7.0704665914912326e+00 3.4006039806439783e+00 7.2222879418606283e+00 0 0 0
21 1 6.4752625826750911e+00 5.0980490108732415e+00 5.6607121246542160e+00 0 0 0
22 5 8.2441607314836780e+00 4.7597684169596475e+00 1.0456940567857620e+01 -1 0 0
23 6 8.2441607316437846e+00 4.7597684158323714e+00 1.3579716341485334e+01 -1 0 0
24 5 1.0602208745222370e+01 6.7869848666276757e+00 1.0467011429205398e+01 -1 0 0
25 6 1.0597099381780014e+01 6.7968642027395765e+00 1.3580751476241614e+01 -1 0 0
26 5 8.8207577829765285e+00 1.7040303719338024e+00 1.0467011426107604e+01 -1 1 0
27 6 8.8318682227302094e+00 1.7035155444065722e+00 1.3580751476185426e+01 -1 1 0
28 4 7.6499586373130501e+00 3.0626746572171735e+00 1.2020629988415736e+01 -1 0 0
29 5 2.9483862429205310e+00 3.7390486476156233e+00 1.0456760055949058e+01 0 0 0
30 6 2.9470317334588341e+00 3.7383190796931380e+00 1.3578022271219774e+01 0 0 0
31 4 1.0010988113344158e+01 5.0937208849778131e+00 1.2020629987916781e+01 -1 0 0
32 5 5.3095156587831260e+00 5.7882900067295937e+00 1.0467011435124956e+01 0 0 0
33 6 5.3035145871840959e+00 5.7789254999547630e+00 1.3580751477999675e+01 0 0 0
34 4 4.1220804297209561e+00 7.1396525909628297e+00 1.2025596518626411e+01 0 0 0
35 5 3.5318574977128527e+00 6.8385265839520248e-01 1.0456760053937350e+01 0 1 0
36 6 3.5331665764738784e+00 6.8304440789830712e-01 1.3578022271465628e+01 0 1 0
37 4 2.3531826720849618e+00 2.0416035197939189e+00 1.2018335869348721e+01 0 1 0
38 5 5.8859989848760890e+00 2.7167513242762542e+00 1.0456760055378169e+01 0 0 0
39 6 5.8860444108494718e+00 2.7182891419556858e+00 1.3578022271913506e+01 0 0 0
40 4 4.7135703192034510e+00 4.0809354995335010e+00 1.2018335873011329e+01 0 0 0
41 4 7.0715356277295882e+00 6.1229096094955890e+00 1.2020629989543746e+01 0 0 0
42 4 5.2994899119819472e+00 1.0171135152414814e+00 1.2018335870848356e+01 0 1 0

Velocities

1 8.3075999653709369e-08 8.3940646965352356e-08 -1.3713239512564104e-04
2 -1.0161591564394066e-06 1.3981511026107396e-06 -1.5331275310812077e-04
3 3.0873876225012876e-08 -1.1399578868997015e-07 -1.3713239780742119e-04
4 1.7186100726707604e-06 1.8090060173876657e-07 -1.5331275630012101e-04
5 -1.6146856250570015e-10 4.3440960082933160e-11 -1.3895160438465474e-04
6 -1.5990252336507255e-10 6.3234551581289964e-11 -1.3909946670284348e-04
7 3.6317907675174421e-07 -1.7932394175680615e-07 -1.3828234431378345e-04
8 -1.8529147565873320e-06 5.7343582801140430e-08 -1.4014254924193226e-04
9 3.5369666628061045e-07 -5.4357222004925327e-07 4.2569302232118989e-05
10 -1.1444308054510212e-07 3.0184413580601464e-08 -1.3713239528057698e-04
11 -7.0294397634900620e-07 -1.5788479533434473e-06 -1.5331275815290950e-04
12 -1.8093646160742526e-10 5.8164897998538249e-11 4.7209923531528014e-05
13 -2.6494384507210657e-08 4.0438598020213188e-07 -1.3828234483586124e-04
14 8.7660589918319831e-07 -1.6331142138906567e-06 -1.4014255196428092e-04
15 -2.3100311723794914e-06 1.3476581435990089e-06 4.3336115231471879e-05
16 -1.2304397985925740e-08 -2.6741339352634860e-06 4.3336118816399685e-05
17 -6.4790750969935445e-07 -3.4589882006529614e-08 4.2569297537228496e-05
18 2.3218094118614243e-06 1.3266517881275458e-06 4.3336121571897114e-05
19 -3.3716903915465848e-07 -2.2493196084434286e-07 -1.3828234563660076e-04
20 9.7583039883073877e-07 1.5759606004213123e-06 -1.4014255447438855e-04
21 2.9368001663668287e-07 5.7833859526876436e-07 4.2569302266632675e-05
22 1.4982706391209963e-10 -4.7890731078765292e-11 1.3910381736303347e-04
23 1.7150079252984795e-10 -5.8339552264123360e-11 1.3895611929508580e-04
24 -1.0158445775030689e-06 -1.3981803804753443e-06 1.5331741673880683e-04
25 8.3376073411387973e-08 -8.3973210171826074e-08 1.3713686997551673e-04
26 -7.0266533071955786e-07 1.5789016576564908e-06 1.5331742217598185e-04
27 -1.1410059000966386e-07 -3.0157458240564349e-08 1.3713687222326711e-04
28 2.3221968309252405e-06 -1.3266791608256625e-06 -4.3340411129880806e-05
29 9.7618538820943970e-07 -1.5759893973620975e-06 1.4014690159722834e-04
30 -3.3683709208682324e-07 2.2490564692240734e-07 1.3828683626984319e-04
31 -1.1948399840921145e-08 2.6741831139771751e-06 -4.3340414345985089e-05
32 1.7189745660844782e-06 -1.8086708460285303e-07 1.5331742238274400e-04
33 3.1242725065087400e-08 1.1395096164352855e-07 1.3713686908260880e-04
34 1.8073143977706855e-10 -6.1467144020633350e-11 -4.7214349235697502e-05
35 8.7694127275718512e-07 1.6331989225531608e-06 1.4014690303413598e-04
36 -2.6146505717113876e-08 -4.0439773706116869e-07 1.3828683714799711e-04
37 2.9402101972693868e-07 -5.7834698926342780e-07 -4.2573585916468643e-05
38 -1.8526767798956548e-06 -5.7357412823388831e-08 1.4014690601067307e-04
39 3.6349571616580047e-07 1.7931751088467804e-07 1.3828683760741113e-04
40 -6.4756074842712152e-07 3.4610561865775735e-08 -4.2573593646882385e-05
41 -2.3097208585940294e-06 -1.3476787269118665e-06 -4.3340415092452694e-05
42 3.5407138211957922e-07 5.4355942715067622e-07 -4.2573588505671150e-05
