LAMMPS data file via write_data, version 30 Mar 2018, timestep = 1285

28 atoms
2 atom types

0.0000000000000000e+00 6.5085478085000004e+00 xlo xhi
0.0000000000000000e+00 5.6365681105999998e+00 ylo yhi
0.0000000000000000e+00 1.0000000000000000e+02 zlo zhi
3.2542732692000000e+00 0.0000000000000000e+00 0.0000000000000000e+00 xy xz yz

Masses

1 12.011
2 12.011

Atoms # atomic

1 1 5.1140451239939049e+00 2.6880665220623767e-01 9.9917940011285822e+01 -1 1 -1
2 1 9.3004590238473939e-01 1.0732718788822222e+00 9.9917939993535768e+01 0 1 -1
3 1 3.2542744695704560e+00 1.8788558547080871e+00 9.9923996771490522e+01 0 1 -1
4 1 7.9029899832667247e+00 3.4893778019651256e+00 9.9921698654071236e+01 -1 0 -1
5 1 7.4382024388313379e+00 4.8317311151555478e+00 9.9922380953756928e+01 -1 0 -1
6 1 3.7187323817184486e+00 4.2944890372510685e+00 9.9917940011832144e+01 0 0 -1
7 1 3.2542740423197269e+00 5.6365678533545491e+00 9.9914890323714587e+01 0 0 -1
8 1 6.0437112391443257e+00 5.0995010287198754e+00 9.9921698645168476e+01 0 0 -1
9 1 2.3245482540662903e+00 8.0493856531343100e-01 9.9920330564875783e+01 0 1 -1
10 1 4.6491771890422502e+00 1.6106477110257031e+00 9.9920330570700230e+01 0 1 -1
11 1 6.9738490472274473e+00 2.4155977864844123e+00 9.9922380936110685e+01 -1 0 -1
12 1 2.7890979546159542e+00 3.2209810603287798e+00 9.9920330578808048e+01 0 0 -1
13 1 5.5789432648796868e+00 2.6842568453063662e+00 9.9921698650137614e+01 0 0 -1
14 1 5.1135929907171782e+00 4.0258065453920588e+00 9.9922380940103778e+01 0 0 -1
15 2 6.5085490499296075e+00 3.7577111650967061e+00 3.3760032278094916e+00 -1 0 0
16 2 8.3683193425453961e+00 5.3677603694173408e+00 3.3820599839962719e+00 -1 0 0
17 2 6.9730075079477958e+00 1.3420779839677128e+00 3.3820600051462630e+00 -1 1 0
18 2 6.0433729085882542e+00 2.4155858479601511e+00 3.3796694338033491e+00 -1 0 0
19 2 2.3246702182127317e+00 2.9523101769625955e+00 3.3783013438122058e+00 0 0 0
20 2 7.9034517815028265e+00 4.0259191996038570e+00 3.3796694186796103e+00 -1 0 0
21 2 4.1843203028515141e+00 4.5632951430367248e+00 3.3820599921037338e+00 0 0 0
22 2 3.2542750036983343e+00 5.6365671667916128e+00 3.3851096755854173e+00 0 0 0
23 2 2.7894387382530490e+00 5.3706599175409098e-01 3.3783013506365629e+00 0 1 0
24 2 1.8593203182351727e+00 1.6107603640596109e+00 3.3776190638145298e+00 0 1 0
25 2 4.6487171172191415e+00 2.1471892180785974e+00 3.3783013540738920e+00 0 0 0
26 2 3.7195760115669079e+00 3.2209691236638056e+00 3.3776190469514105e+00 0 0 0
27 2 5.5788226663158298e+00 4.8316283429659475e+00 3.3796694310330029e+00 0 0 0
28 2 4.1839299471549039e+00 8.0483579434776076e-01 3.3776190571626605e+00 0 1 0

Velocities

1 -2.6369345799579866e-05 -1.4616901782472241e-04 -7.2056130499326842e-05
2 -1.1352403996525121e-04 9.5916067495348023e-05 -7.2056065534771216e-05
3 9.2346151859522309e-09 -1.0254358784411357e-07 -7.5604396156290311e-05
4 2.1392895022485123e-04 2.7078948038547940e-04 -7.4205451590402834e-05
5 3.2127683743117622e-04 -9.1424119516612967e-05 -7.4967182014902908e-05
6 1.3973086394765923e-04 5.0261421363973341e-05 -7.2056232793417765e-05
7 2.9705072280793282e-08 2.9999584527720681e-08 -7.0764225169312844e-05
8 -3.4142782261603356e-04 4.9854883954714839e-05 -7.4205745394385144e-05
9 1.1452516136296045e-04 -1.2797799770702213e-04 -7.3104645730587433e-05
10 5.3581866806938239e-05 1.6306550346734176e-04 -7.3105325930824212e-05
11 -2.3986798750556872e-04 -2.3256519679245750e-04 -7.4968025637651484e-05
12 -1.6811463114880002e-04 -3.5008747427097510e-05 -7.3104923471430602e-05
13 1.2758965716686010e-04 -3.2054896054657927e-04 -7.4204823718175927e-05
14 -8.1442088192900313e-05 3.2392816447290445e-04 -7.4967210317533872e-05
15 -2.9002781387842258e-07 1.2192110584484512e-08 7.5604256226847224e-05
16 -2.6668107005961298e-05 1.4619144408267268e-04 7.2055268931765245e-05
17 1.4000580906945183e-04 -5.0821125681752244e-05 7.2057194197856057e-05
18 -1.6860168457695203e-04 3.5376994600245345e-05 7.3104128401930876e-05
19 1.2763573327147129e-04 3.2092578173846455e-04 7.4205443024739790e-05
20 5.3941655357796708e-05 -1.6309378668045223e-04 7.3105478153304696e-05
21 -1.1341211159863435e-04 -9.6034302886490231e-05 7.2055975032522332e-05
22 2.5783817085081671e-07 3.5542719752258581e-07 7.0764133183595353e-05
23 -3.4154225511965637e-04 -4.9638782083478547e-05 7.4205342619073641e-05
24 -8.1514489939155360e-05 -3.2430975895640212e-04 7.4967423448452696e-05
25 2.1433752260257752e-04 -2.7068816345296052e-04 7.4205902781910804e-05
26 -2.3996974914828942e-04 2.3268508418188287e-04 7.4967273155574903e-05
27 1.1450029917071974e-04 1.2780846537581783e-04 7.3104925263697227e-05
28 3.2139320615585953e-04 9.1181593139941114e-05 7.4967639537761564e-05
