LAMMPS data file via write_data, version 3 Mar 2020, timestep = 269

222 atoms
6 atom types

0.0000000000000000e+00 1.8953887377200001e+01 xlo xhi
0.0000000000000000e+00 1.6414547962299999e+01 ylo yhi
0.0000000000000000e+00 1.0000000000000000e+02 zlo zhi
9.4769437003999997e+00 0.0000000000000000e+00 0.0000000000000000e+00 xy xz yz

Masses

1 95.94
2 32.066
3 32.066
4 95.94
5 32.066
6 32.066

Atoms # atomic

1 2 1.7148910159310386e+01 1.6288265623830481e-01 4.0527808392890314e+00 -1 1 0
2 3 1.7173585729529467e+01 1.6610279911490791e-01 7.1663439020968553e+00 -1 1 0
3 2 1.0435494161369692e+00 1.4817156384343499e+00 4.0527808389571813e+00 0 1 0
4 3 1.0340003581564132e+00 1.4587358961303587e+00 7.1663439017437129e+00 0 1 0
5 2 2.3532429648845614e+01 1.2132576700552949e+01 4.1207799347930836e+00 -1 0 0
6 3 2.3558053125473041e+01 1.2158949132510374e+01 7.2389688187259740e+00 -1 0 0
7 2 2.6349597481877609e+01 1.3453958588825351e+01 4.0746659415469768e+00 -1 0 0
8 3 2.6365377052015340e+01 1.3489235442064716e+01 7.1896948616599774e+00 -1 0 0
9 1 2.5602727766635109e+01 1.5104775097271741e+01 5.6245954236631848e+00 -1 0 0
10 2 1.0238372664001322e+01 1.4769950682898214e+01 4.0527808382820503e+00 0 0 0
11 3 1.0223246153968047e+01 1.4789710280816172e+01 7.1663439010297134e+00 0 0 0
12 1 3.8756207363072446e-07 3.3861616066563353e-07 5.5999768531648986e+00 0 1 0
13 2 1.3081506979605706e+01 1.6092441658489651e+01 4.0746659408923165e+00 0 0 0
14 3 1.3043066543886018e+01 1.6088468739215042e+01 7.1896948609881033e+00 0 0 0
15 1 2.8302377488627353e+00 1.3103665510425020e+00 5.6239685498986010e+00 0 1 0
16 2 6.4241798017159351e+00 1.0158202346385645e+00 4.1170495732521477e+00 0 1 0
17 3 6.3944675137092863e+00 1.0022169388920197e+00 7.2355588972379152e+00 0 1 0
18 1 5.6505359949383589e+00 2.6399894184472652e+00 5.6724688041015821e+00 0 1 0
19 2 9.2253485799576360e+00 2.3664963257153020e+00 4.1405470590065327e+00 0 1 0
20 3 9.2280611452429184e+00 2.3587847361878578e+00 7.2612220035563304e+00 0 1 0
21 2 2.0507526361735426e+01 7.7056276939298751e+00 4.1379101923142017e+00 -1 0 0
22 3 2.0509239092109979e+01 7.6749837993759371e+00 7.2572190833422878e+00 -1 0 0
23 2 2.3300421412320372e+01 9.0262674553195641e+00 4.1401687149395228e+00 -1 0 0
24 3 2.3305763217018981e+01 9.0261780540974730e+00 7.2601678577901936e+00 -1 0 0
25 1 2.2533931945896512e+01 1.0656407929098382e+01 5.7007478262078726e+00 -1 0 0
26 2 7.1445802130496325e+00 1.0343135783715748e+01 4.1170495735542261e+00 0 0 0
27 3 7.1476555581071084e+00 1.0375669027460471e+01 7.2355588975150109e+00 0 0 0
28 1 2.5335708918920808e+01 1.1990369148388606e+01 5.6609304657133119e+00 -1 0 0
29 2 9.9675287828751351e+00 1.1657322169398091e+01 4.0915745453330228e+00 0 0 0
30 3 9.9513356404358468e+00 1.1698900981133866e+01 7.2079436267683494e+00 0 0 0
31 1 9.1966358342140904e+00 1.3308307742694636e+01 5.6239685496495460e+00 0 0 0
32 2 1.2806445702685558e+01 1.2977557877732742e+01 4.0933937159052514e+00 0 0 0
33 3 1.2768268803816722e+01 1.3004100979319567e+01 7.2095378345184074e+00 0 0 0
34 1 1.2025292803249766e+01 1.4620225256831096e+01 5.6245954224000299e+00 0 0 0
35 2 1.5634441177997575e+01 1.4313393693460222e+01 4.1207799337393647e+00 0 0 0
36 3 1.5598790243404013e+01 1.4322398058702944e+01 7.2389688176389706e+00 0 0 0
37 1 1.4855956897357077e+01 1.5946183127738196e+01 5.6609304649345242e+00 0 0 0
38 2 1.8440588015705561e+01 1.5665623291491654e+01 4.1401687144670749e+00 0 0 0
39 3 1.8437994536817712e+01 1.5670294130131328e+01 7.2601678573491331e+00 0 0 0
40 1 8.2020428291565359e+00 8.7964871061173133e-01 5.6948699222755046e+00 0 1 0
41 2 1.1766116062280046e+01 6.0799874453361258e-01 4.1260175769663334e+00 0 1 0
42 3 1.1800614528888126e+01 6.1326816741698109e-01 7.2449809678447137e+00 0 1 0
43 1 1.1020017240681293e+01 2.2344711187415700e+00 5.6954399451021844e+00 0 1 0
44 2 1.4588716734126550e+01 1.9537545914763053e+00 4.0915745470693015e+00 0 1 0
45 3 1.4632821612642429e+01 1.9469888583947275e+00 7.2079436286552099e+00 0 1 0
46 2 2.0265657978285624e+01 4.6019285308875171e+00 4.0933937175787225e+00 -1 0 0
47 3 2.0261759428085490e+01 4.5555948157154900e+00 7.2095378362905933e+00 -1 0 0
48 1 1.9491758688214624e+01 6.2081349978965319e+00 5.6765238826230160e+00 -1 0 0
49 2 4.1204283089979041e+00 5.9207940234678675e+00 4.1260175766943954e+00 0 0 0
50 3 4.1077425302646686e+00 5.8882827629107721e+00 7.2449809674982397e+00 0 0 0
51 1 2.2297235182725565e+01 7.5357224364823150e+00 5.6972749877555326e+00 -1 0 0
52 2 6.9137156301767195e+00 7.2419144175030583e+00 4.1405470588630680e+00 0 0 0
53 3 6.9056809151844742e+00 7.2434210612329695e+00 7.2612220033544919e+00 0 0 0
54 1 6.1377206990831255e+00 8.8715470002073662e+00 5.6948699225031749e+00 0 0 0
55 2 9.7183367077734015e+00 8.5631122414496978e+00 4.1325822906004683e+00 0 0 0
56 3 9.7091077442960501e+00 8.5900923898427983e+00 7.2525943803665243e+00 0 0 0
57 1 8.9379738904082924e+00 1.0201046382957506e+01 5.6724688038961677e+00 0 0 0
58 2 1.2544287868080245e+01 9.8857562071546248e+00 4.1260175759355038e+00 0 0 0
59 3 1.2522475179789986e+01 9.9129980450084272e+00 7.2449809666952651e+00 0 0 0
60 1 1.1755329889416769e+01 1.1520829737699984e+01 5.6603158446805022e+00 0 0 0
61 2 1.5373393833107288e+01 1.1216244132891385e+01 4.1379101911654637e+00 0 0 0
62 3 1.5345999076055490e+01 1.1230082813080932e+01 7.2572190821336449e+00 0 0 0
63 1 1.4584410952565330e+01 1.2844671090363132e+01 5.6765238807744458e+00 0 0 0
64 2 1.8184006546946463e+01 1.2558464166099094e+01 4.1518646297479034e+00 0 0 0
65 3 1.8176114444282764e+01 1.2567413214065910e+01 7.2720861476082090e+00 0 0 0
66 1 1.7412089685722098e+01 1.4186753704717697e+01 5.7007478253981878e+00 0 0 0
67 2 2.0980743122041435e+01 1.3907225110190105e+01 4.1379101918997643e+00 0 0 0
68 3 2.1006425148172308e+01 1.3924030325313307e+01 7.2572190829337373e+00 0 0 0
69 1 2.0233030982258661e+01 1.5542111043293852e+01 5.6972749875254340e+00 0 0 0
70 2 2.3789559636011173e+01 1.5249610529893747e+01 4.0933937174428454e+00 0 0 0
71 3 2.3831635085946626e+01 1.5269401143008608e+01 7.2095378361626414e+00 0 0 0
72 1 1.3576610266095079e+01 4.7371963308944032e-01 5.6603158464038890e+00 0 1 0
73 1 1.6403958656824603e+01 1.7958746839474258e+00 5.6239685512012256e+00 0 1 0
74 1 1.9233642747599209e+01 3.1040965859229406e+00 5.6245954240407450e+00 -1 0 0
75 2 3.8745867224281025e+00 2.8034722154249909e+00 4.0915745459183146e+00 0 0 0
76 3 3.8466749871161636e+00 2.7686591361080417e+00 7.2079436274026163e+00 0 0 0
77 1 3.0988920837587268e+00 4.4199996062047280e+00 5.6603158458782685e+00 0 0 0
78 2 6.6788471628681947e+00 4.1347705133709471e+00 4.1325822908028904e+00 0 0 0
79 3 6.6600961508700740e+00 4.1132879224076557e+00 7.2525943805982136e+00 0 0 0
80 1 5.9020441151271577e+00 5.7536983701064823e+00 5.6954399445836543e+00 0 0 0
81 2 9.4769440798087476e+00 5.4715163248445160e+00 4.1467389143683766e+00 0 0 0
82 3 9.4769440793145279e+00 5.4715163249666974e+00 7.2681413905063978e+00 0 0 0
83 1 8.7001255489901048e+00 7.0942074597724476e+00 5.7037387400094639e+00 0 0 0
84 2 1.2291768029257883e+01 6.8061382314941001e+00 4.1405470592402853e+00 0 0 0
85 3 1.2297090177837097e+01 6.8123431776312975e+00 7.2612220037816551e+00 0 0 0
86 1 1.1508770882853357e+01 8.4263794872769928e+00 5.6954399443586228e+00 0 0 0
87 2 1.5120653888886915e+01 8.1372061901578778e+00 4.1401687150703745e+00 0 0 0
88 3 1.5117905562298079e+01 8.1326247533924239e+00 7.2601678579619993e+00 0 0 0
89 1 1.4331397151215757e+01 9.7512634589515201e+00 5.6972749870556996e+00 0 0 0
90 2 1.7939823360155863e+01 9.4685796851194830e+00 4.1518646303106461e+00 0 0 0
91 3 1.7936019308200155e+01 9.4572704009957516e+00 7.2720861481931660e+00 0 0 0
92 1 1.7156669633400007e+01 1.1083267446961262e+01 5.7122431583346529e+00 0 0 0
93 2 2.0737833409751730e+01 1.0802053085315883e+01 4.1518646302834066e+00 0 0 0
94 3 2.0749529563446096e+01 1.0804413322694957e+01 7.2720861481533667e+00 0 0 0
95 1 1.9973944031267187e+01 1.2429351309264108e+01 5.7122431586164204e+00 0 0 0
96 1 2.2785493675791628e+01 1.3776290850934451e+01 5.6765238820957524e+00 0 0 0
97 1 8.4600615990179975e+00 3.9874261758162688e+00 5.7037387401560835e+00 0 0 0
98 2 1.2033648368774566e+01 3.7166662201546576e+00 4.1325822916382000e+00 0 0 0
99 3 1.2061628343373734e+01 3.7111686628526672e+00 7.2525943815218845e+00 0 0 0
100 1 1.1270645090526493e+01 5.3329153402493263e+00 5.7037387405840096e+00 0 0 0
101 2 1.4862072224634769e+01 5.0555929571071818e+00 4.1170495748323965e+00 0 0 0
102 3 1.4888709167446912e+01 5.0366630090408373e+00 7.2355588989256345e+00 0 0 0
103 1 1.4091068710429953e+01 6.6633532654571486e+00 5.6948699232370554e+00 0 0 0
104 2 1.7694792490091974e+01 6.3831265435841429e+00 4.1207799355538741e+00 0 0 0
105 3 1.7704819948051526e+01 6.3477497466539692e+00 7.2389688195600179e+00 0 0 0
106 1 1.6915641684523603e+01 7.9859353049848316e+00 5.7007478265909146e+00 0 0 0
107 1 1.9731049651255649e+01 9.3164781824862786e+00 5.7122431590069311e+00 0 0 0
108 1 1.3842322353729509e+01 3.5735131752164246e+00 5.6724688055313059e+00 0 0 0
109 2 1.7430558855550242e+01 3.2826966918342104e+00 4.0746659426790810e+00 0 0 0
110 3 1.7453219722595492e+01 3.2513927569001799e+00 7.1896948628830506e+00 0 0 0
111 1 1.6669997500591119e+01 4.8925446632275440e+00 5.6609304669990221e+00 0 0 0
112 5 2.6650529421450226e+01 1.6248445829590924e+01 1.0512703727618298e+01 -1 0 0
113 6 2.6625853851354869e+01 1.6251665973749454e+01 1.3626266790425642e+01 -1 0 0
114 5 1.9700189825008046e+01 1.6248383479021808e+00 1.0512703727981679e+01 -1 1 0
115 6 1.9715316335139399e+01 1.6445979469104957e+00 1.3626266790769426e+01 -1 1 0
116 5 2.1774033862042128e+01 9.6022054515565234e+00 1.0417825626063376e+01 -1 0 0
117 6 2.1768711712590779e+01 9.6084103971354011e+00 1.3538500570622039e+01 -1 0 0
118 5 2.4365652853696673e+01 1.1377885619888607e+01 1.0443488731888280e+01 -1 0 0
119 6 2.4339015910167575e+01 1.1358955671864473e+01 1.3561998055922379e+01 -1 0 0
120 4 2.3319266041411566e+01 1.2841035454532156e+01 1.2006578824969253e+01 -1 0 0
121 5 7.9762760334092402e+00 1.3163155871959294e+01 1.0489352768138124e+01 0 0 0
122 6 7.9536151662068955e+00 1.3131851937773702e+01 1.3604381688274710e+01 0 0 0
123 4 2.5880902346541419e+01 1.4618673946014074e+01 1.2055079079205457e+01 -1 0 0
124 5 1.0510944048280013e+01 1.4955812732706724e+01 1.0512703728683537e+01 0 0 0
125 6 1.0520493106487809e+01 1.4932832991546054e+01 1.3626266791430467e+01 0 0 0
126 4 3.7921813839289178e-07 3.2915027189965861e-07 1.2079070776553024e+01 0 1 0
127 5 3.5661228358895896e+00 3.2607988962922707e-01 1.0489352768668041e+01 0 1 0
128 6 3.6045632718087206e+00 3.2210697132350341e-01 1.3604381688742778e+01 0 1 0
129 4 2.5483490972509788e+00 1.7943233731349177e+00 1.2054452206694302e+01 0 1 0
130 5 6.1218465384097147e+00 2.0921505703133274e+00 1.0440078811663733e+01 0 1 0
131 6 6.1574974730431897e+00 2.1011549359103481e+00 1.3558267695553408e+01 0 1 0
132 5 1.9428279316769899e+01 4.7156476479969083e+00 1.0471104001545861e+01 -1 0 0
133 6 1.9444472459021920e+01 4.7572264597931637e+00 1.3587473083098967e+01 -1 0 0
134 5 2.1999418859387351e+01 6.5015505840780419e+00 1.0434066662328217e+01 -1 0 0
135 6 2.2021231546938715e+01 6.5287924214516195e+00 1.3553030053173586e+01 -1 0 0
136 4 2.0985714564150893e+01 7.9881691424022367e+00 1.1983607684846028e+01 -1 0 0
137 5 5.6409618674068520e+00 8.2819238757758598e+00 1.0418879772304084e+01 0 0 0
138 6 5.6437101931858047e+00 8.2773424383492280e+00 1.3538878915193939e+01 0 0 0
139 4 2.3568012394166384e+01 9.7511953641124762e+00 1.1984177707167920e+01 -1 0 0
140 5 8.2278762552593676e+00 1.0066798882708733e+01 1.0440078811620205e+01 0 0 0
141 6 8.2178487969807321e+00 1.0031422085393732e+01 1.3558267695555552e+01 0 0 0
142 4 7.1930538092653187e+00 1.1522003966559176e+01 1.2018117164180136e+01 0 0 0
143 5 1.0784815737238524e+01 1.1858953813772938e+01 1.0469509794922812e+01 0 0 0
144 6 1.0788714287692924e+01 1.1812620098696561e+01 1.3585653913551610e+01 0 0 0
145 4 9.7566990583949096e+00 1.3310452044130029e+01 1.2054452206995476e+01 0 0 0
146 5 1.3323618675720898e+01 1.3645889493302716e+01 1.0471104003184195e+01 0 0 0
147 6 1.3351530411454522e+01 1.3611076414426080e+01 1.3587473084598416e+01 0 0 0
148 4 1.2307181439228305e+01 1.5104182079083145e+01 1.2055079080377485e+01 0 0 0
149 5 1.5871411204871151e+01 1.5412331690354465e+01 1.0443488732662086e+01 0 0 0
150 6 1.5901123493151719e+01 1.5398728395106641e+01 1.3561998056590349e+01 0 0 0
151 4 5.3790131895927651e+00 4.6836550233320540e-01 1.2018117164648428e+01 0 1 0
152 5 8.9610508297877782e+00 7.4425449912200337e-01 1.0418879772099055e+01 0 1 0
153 6 8.9636443088928583e+00 7.4892533809136808e-01 1.3538878914944616e+01 0 1 0
154 4 7.9351459808180973e+00 2.2277949254122280e+00 1.1978299803910476e+01 0 1 0
155 5 1.1529481443682352e+01 2.4905183042157493e+00 1.0421828546155611e+01 0 1 0
156 6 1.1503799417964926e+01 2.5073235193812153e+00 1.3541137437202973e+01 0 1 0
157 4 1.8673579507496434e+01 3.1062408873916167e+00 1.2055079078821464e+01 -1 0 0
158 5 3.2913251008834852e+00 3.4104476495008380e+00 1.0469509794313630e+01 0 0 0
159 6 3.3295019995048794e+00 3.4369907514739455e+00 1.3585653912985087e+01 0 0 0
160 4 2.1232273565700311e+01 4.8937188920889234e+00 1.2018731783940188e+01 -1 0 0
161 5 5.8690553762931517e+00 5.1844658160567763e+00 1.0421828547275844e+01 0 0 0
162 6 5.8964501329075976e+00 5.1983044958289666e+00 1.3541137438276820e+01 0 0 0
163 4 4.8544534532590289e+00 6.6632851706927321e+00 1.1981772642520870e+01 0 0 0
164 5 8.4590756111243639e+00 6.9572782286533998e+00 1.0406961482049523e+01 0 0 0
165 6 8.4628796629204537e+00 6.9459689436317458e+00 1.3527182999915391e+01 0 0 0
166 4 7.4386979892151812e+00 8.4286133248445907e+00 1.1978299804105964e+01 0 0 0
167 5 1.1032295397370692e+01 8.7395648306973719e+00 1.0421828547312668e+01 0 0 0
168 6 1.1030582667316152e+01 8.7089209352227694e+00 1.3541137438294564e+01 0 0 0
169 4 1.0014814995279774e+01 1.0206413632252243e+01 1.2002523748569056e+01 0 0 0
170 5 1.3584686215055228e+01 1.0526265867224891e+01 1.0434066662994724e+01 0 0 0
171 6 1.3597371994290530e+01 1.0493754606014559e+01 1.3553030053748291e+01 0 0 0
172 4 1.2575835770322865e+01 1.1994549024097349e+01 1.2018731785008002e+01 0 0 0
173 5 1.6137039838100566e+01 1.2301260707393430e+01 1.0426453249541845e+01 0 0 0
174 6 1.6155790850357249e+01 1.2279778116166790e+01 1.3546465339289258e+01 0 0 0
175 4 1.5127479683867877e+01 1.3774559211780554e+01 1.2006578826144690e+01 0 0 0
176 5 1.8705004834835840e+01 1.4055763893158510e+01 1.0417825626345209e+01 0 0 0
177 6 1.8702292269535882e+01 1.4048052303812597e+01 1.3538500570842327e+01 0 0 0
178 4 1.7678986520534576e+01 1.5534899919536363e+01 1.1984177707443727e+01 0 0 0
179 5 2.1277558220650878e+01 1.5801280461680243e+01 1.0434066661792608e+01 0 0 0
180 6 2.1243059754085568e+01 1.5806549885145982e+01 1.3553030052635648e+01 0 0 0
181 4 1.0756087275345845e+01 8.7243758695773521e-01 1.1981772641792960e+01 0 1 0
182 5 1.4354691379147658e+01 1.1451474860933704e+00 1.0469509792945697e+01 0 1 0
183 6 1.4312615929509985e+01 1.1649380999744181e+00 1.3585653911690269e+01 0 1 0
184 4 1.3308549971480069e+01 2.6382577794937188e+00 1.2002523746755154e+01 0 1 0
185 4 5.1074672495990452e+00 3.5698775394961411e+00 1.2002523748336337e+01 0 0 0
186 5 8.6991707421778734e+00 3.8471354154127551e+00 1.0406961481786567e+01 0 0 0
187 6 8.7070628449772283e+00 3.8560844630192843e+00 1.3527182999644637e+01 0 0 0
188 4 7.6797259334481511e+00 5.3312811830364826e+00 1.1966804471347526e+01 0 0 0
189 5 1.1272585864007050e+01 5.6101353073517553e+00 1.0406961481362961e+01 0 0 0
190 6 1.1260889710771414e+01 5.6124955438712307e+00 1.3527182999251805e+01 0 0 0
191 4 1.0254105954096158e+01 7.0980704478287855e+00 1.1966804471195804e+01 0 0 0
192 5 1.3828819520265986e+01 7.3883705762404004e+00 1.0418879771649308e+01 0 0 0
193 6 1.3823477716128975e+01 7.3882811739745842e+00 1.3538878914538250e+01 0 0 0
194 4 1.2820291488165038e+01 8.8788261940114701e+00 1.1981772642503316e+01 0 0 0
195 5 1.6382624598399424e+01 9.1711275689133167e+00 1.0417825626052716e+01 0 0 0
196 6 1.6390659313592245e+01 9.1726342116949358e+00 1.3538500570579526e+01 0 0 0
197 4 1.5378987800224154e+01 1.0660850260251763e+01 1.1983607685456768e+01 0 0 0
198 5 1.8953887765126890e+01 1.0943032304640171e+01 1.0410906239211533e+01 0 0 0
199 6 1.8953887765291437e+01 1.0943032304212437e+01 1.3532308715349552e+01 0 0 0
200 4 1.7937005286428032e+01 1.2427122454270506e+01 1.1975308889771512e+01 0 0 0
201 5 2.1538572031349201e+01 1.2703379966210628e+01 1.0426453248659067e+01 0 0 0
202 6 2.1510592056233030e+01 1.2697882409046905e+01 1.3546465338494704e+01 0 0 0
203 4 2.0496960930271602e+01 1.4180077511239769e+01 1.1983607684806602e+01 0 0 0
204 5 2.4109765302470436e+01 1.4467559770383472e+01 1.0471104001597560e+01 0 0 0
205 6 2.4065660423728215e+01 1.4460794038174781e+01 1.3587473083135768e+01 0 0 0
206 4 2.3053553957852870e+01 1.5940828997017872e+01 1.2018731783242973e+01 0 0 0
207 4 1.6125784059982948e+01 1.3097735329431619e+00 1.2054452205360054e+01 0 1 0
208 4 1.0497000329231282e+01 3.9851973211106815e+00 1.1966804470652384e+01 0 0 0
209 5 1.4081109423657523e+01 4.2555994973170259e+00 1.0440078809944886e+01 0 0 0
210 6 1.4055485947587481e+01 4.2819719290035509e+00 1.3558267693958511e+01 0 0 0
211 4 1.3056988246668682e+01 5.7581407014705066e+00 1.1978299802940363e+01 0 0 0
212 5 1.6624599236511077e+01 6.0388796023968778e+00 1.0443488730924857e+01 0 0 0
213 6 1.6621523891697588e+01 6.0714128455605918e+00 1.3561998055002295e+01 0 0 0
214 4 1.5614664379808746e+01 7.5430016302351124e+00 1.1984177706526435e+01 0 0 0
215 5 1.9186051425812376e+01 7.8244562397338653e+00 1.0426453248466249e+01 0 0 0
216 6 1.9195280388870888e+01 7.8514363873728676e+00 1.3546465338328261e+01 0 0 0
217 4 1.8177069232314366e+01 9.3203411702785210e+00 1.1975308889273400e+01 0 0 0
218 4 2.0747588776161543e+01 1.1081633289489591e+01 1.1975308889359374e+01 0 0 0
219 5 1.6888433347919637e+01 2.9253131870934563e+00 1.0489352766816500e+01 0 0 0
220 6 1.6872653778070056e+01 2.9605900409167472e+00 1.3604381687017931e+01 0 0 0
221 4 1.5858765217363587e+01 4.4241794820134386e+00 1.2018117162678351e+01 0 0 0
222 4 1.8414917568929305e+01 6.2135022471127215e+00 1.2006578824510820e+01 0 0 0

Velocities

1 1.3156171565950290e-05 -2.2724346088996208e-05 -1.5127352082730430e-04
2 -1.3983849621475858e-05 -2.7580593602894412e-05 -1.3838170430697700e-04
3 -2.6257959310424862e-05 -3.1536254953298889e-08 -1.5127351826462311e-04
4 -1.6893608740270501e-05 2.5900543550684310e-05 -1.3838170130527660e-04
5 4.4594660172446868e-05 -1.4788978041023362e-05 -2.2547837158878894e-04
6 1.4551157167436011e-05 -4.5862800395392856e-05 -2.1582128208251635e-04
7 4.5832124630051848e-05 -2.6185830379934176e-06 -1.7446558098639379e-04
8 2.8548443159010534e-05 -4.1538380830050432e-05 -1.6253117839273707e-04
9 1.4093704196490259e-05 -3.1854767252937701e-05 -2.4330656946486699e-04
10 1.3101657662610309e-05 2.2755699314923892e-05 -1.5127350261840870e-04
11 3.0877295860804818e-05 1.6798990042729151e-06 -1.3838168533607321e-04
12 -4.8210027995671626e-11 -5.5038915663059383e-11 -2.1566542045231842e-04
13 -2.0648419927612800e-05 4.1001025625225191e-05 -1.7446557538965400e-04
14 2.1698948989487160e-05 4.5492840209657130e-05 -1.6253117261597758e-04
15 -1.7100877262081435e-05 3.1047518048003485e-05 -2.4128928848617047e-04
16 -2.5136573359703358e-05 3.3806295963796244e-05 -2.1679498832614683e-04
17 5.6225455473060441e-06 4.7438925385616085e-05 -2.0767359671899850e-04
18 -2.1159165746736589e-05 3.3319129945608409e-05 -2.9021824913724839e-04
19 -8.0894133525263964e-06 2.9715557552083118e-06 -2.3864830532941447e-04
20 -1.2304127418019725e-05 7.8842121642438179e-06 -2.3142111668085610e-04
21 -2.3639196246087548e-05 -1.9352746392621202e-05 -2.4494114711908881e-04
22 -3.0852697475673363e-05 1.7261286323445374e-05 -2.3615574995878650e-04
23 1.3592667435868058e-05 -9.4445868991361048e-06 -2.4398957120064298e-04
24 3.0211500966663615e-06 -7.6430049555521696e-06 -2.3585671760059578e-04
25 7.5104934455296804e-06 -1.4569634970391866e-05 -3.3003085726088108e-04
26 4.1845378966004726e-05 4.8656423226609174e-06 -2.1679498931626311e-04
27 3.8272009318313647e-05 -2.8588846330031503e-05 -2.0767359758780277e-04
28 3.0561375597216863e-05 -1.9918449115909303e-05 -2.8253713533338742e-04
29 3.5433643351233816e-05 2.7808011609333492e-05 -1.9055797524129831e-04
30 5.6299940356492426e-05 -1.5001857699303534e-05 -1.7967944726960606e-04
31 3.5438353411644989e-05 -7.1408675732943049e-07 -2.4128928485751263e-04
32 6.3154739875189869e-06 4.7679121634885631e-05 -1.9529256777451692e-04
33 5.2467405508613848e-05 2.0657952220326863e-05 -1.8400803390564082e-04
34 2.0540068374157403e-05 2.8132851908960372e-05 -2.4330654990333166e-04
35 -9.4898131938414494e-06 4.6014560765763059e-05 -2.2547835829240135e-04
36 3.2442660162213109e-05 3.5533044145277176e-05 -2.1582126868274388e-04
37 1.9690798055749709e-06 3.6426117471420605e-05 -2.8253712422634532e-04
38 1.3828045301200792e-06 1.6493850966519821e-05 -2.4398956301981779e-04
39 5.1083486306114361e-06 6.4378670131568335e-06 -2.3585670938604044e-04
40 -7.6367017937389966e-06 1.1217402603554649e-05 -3.1555656520609670e-04
41 1.5971447584830723e-05 -2.3085847319710160e-05 -2.2695979830723368e-04
42 -2.1302188023254085e-05 -3.5709961356676462e-05 -2.1798898346035489e-04
43 -1.0654807284256026e-05 -2.3975493734663692e-05 -3.1339165607276328e-04
44 6.3656008379622634e-06 -4.4590555314972369e-05 -1.9055800959704504e-04
45 -4.1141982177883042e-05 -4.1256362796582977e-05 -1.7967948315803197e-04
46 -4.4449173629649186e-05 -1.8370243444560872e-05 -1.9529260170222896e-04
47 -4.4124129471506161e-05 3.5109089004617118e-05 -1.8400806887830591e-04
48 -3.8094226713326299e-05 6.0957075728451871e-06 -3.0297824129784062e-04
49 -2.7978677806137581e-05 -2.2888770090839674e-06 -2.2695979719014912e-04
50 -2.0274672889595246e-05 3.6303104792410624e-05 -2.1798898195724792e-04
51 -2.0320230465304059e-05 9.9403184882775292e-06 -3.2303406347158257e-04
52 6.6181247920039035e-06 5.5197429361336887e-06 -2.3864830255240674e-04
53 1.2979965161089165e-05 6.7134719586778257e-06 -2.3142111326564211e-04
54 1.3532878832670123e-05 1.0047631910793777e-06 -3.1555656584597607e-04
55 2.4300145237373585e-05 1.3602953507879376e-05 -2.3007078819056221e-04
56 3.7256756033259052e-05 -1.2904542111226259e-05 -2.2234948221522266e-04
57 3.9434772485938073e-05 1.6646950614926150e-06 -2.9021824272652775e-04
58 1.2007098495200565e-05 2.5374579883404168e-05 -2.2695978377794469e-04
59 4.1576735456894749e-05 -5.9329212302180391e-07 -2.1798896772428988e-04
60 4.0581725856809557e-05 1.8218845403186167e-05 -2.8057911803701689e-04
61 -4.9403926210884798e-06 3.0148418751238976e-05 -2.4494112630690670e-04
62 3.0375052381222630e-05 1.8088460250506127e-05 -2.3615572870190187e-04
63 2.4326133010611189e-05 2.9942606582948512e-05 -3.0297821622634881e-04
64 3.1100014294012212e-06 1.6520647195608999e-05 -2.6178120469523775e-04
65 1.4067035629061466e-05 4.9452215166096962e-06 -2.5385474153057070e-04
66 8.8623172693193667e-06 1.3789063288034542e-05 -3.3003084550218073e-04
67 2.8579458912426237e-05 -1.0795808501807454e-05 -2.4494113345455311e-04
68 4.7752134142149714e-07 -3.5349897323705503e-05 -2.3615573598910255e-04
69 1.5514353057696287e-06 -2.2568029436421225e-05 -3.2303406292780520e-04
70 3.8133569220294688e-05 -2.9309039480657618e-05 -1.9529259023267641e-04
71 -8.3434202035437978e-06 -5.5767192150076127e-05 -1.8400805757023912e-04
72 -4.5129037073169043e-06 -4.4254337150172574e-05 -2.8057914637400074e-04
73 -1.8337615918154397e-05 -3.0333590893533968e-05 -2.4128930391950092e-04
74 -3.4633912590729648e-05 3.7217554649663370e-06 -2.4330657096219792e-04
75 -4.1799376077917381e-05 1.6782380622505874e-05 -1.9055799058311149e-04
76 -1.5158100879913348e-05 5.6258070895849428e-05 -1.7967946290037116e-04
77 -3.6068954363425358e-05 2.6035341451334953e-05 -2.8057913818965100e-04
78 -2.3930681268381060e-05 1.4243027114876883e-05 -2.3007079299683334e-04
79 -7.4528260321035172e-06 3.8717526194411261e-05 -2.2234948758488777e-04
80 -1.5436010408307143e-05 2.1214971139140998e-05 -3.1339164894361276e-04
81 -4.4945504481442904e-11 -4.5138169121781111e-11 -2.4311140943919052e-04
82 -3.6112098790709342e-11 -4.8441815530514920e-11 -2.3678269393161152e-04
83 1.2684405605034367e-05 5.3946213905704918e-06 -3.1937619159341384e-04
84 1.4711552640778865e-06 -8.4914365497523398e-06 -2.3864831390832579e-04
85 -6.7595186240088729e-07 -1.4597830485980413e-05 -2.3142112498160733e-04
86 2.6090693253764429e-05 2.7603831306168203e-06 -3.1339163981938567e-04
87 -1.4975602906967892e-05 -7.0494002165541380e-06 -2.4398958081532624e-04
88 -8.1296189982325958e-06 1.2049884060998213e-06 -2.3585672734618618e-04
89 1.8768671178149277e-05 1.2627568416727740e-05 -3.2303404781663930e-04
90 -1.5862401173919207e-05 -5.5670054895559688e-06 -2.6178121791196158e-04
91 -1.1316301181659866e-05 9.7097563509891956e-06 -2.5385475578716888e-04
92 7.1161680605385269e-06 1.1535419497992869e-05 -3.4597968521875603e-04
93 1.2752270971042982e-05 -1.0953769833838985e-05 -2.6178121299546154e-04
94 -2.7508523814080659e-06 -1.4655129275635492e-05 -2.5385475001083797e-04
95 6.4318593998702721e-06 -1.1930594997683277e-05 -3.4597969335436996e-04
96 1.3767964797147334e-05 -3.6038461969959170e-05 -3.0297823963215784e-04
97 -1.1014186184206607e-05 8.2876733479873942e-06 -3.1937619599653157e-04
98 -3.6959735052132696e-07 -2.7846122738024226e-05 -2.3007080915912566e-04
99 -2.9804047894952454e-05 -2.5813130654126757e-05 -2.2234950452754926e-04
100 -1.6703417501662448e-06 -1.3682430712076035e-05 -3.1937619766262418e-04
101 -1.6708937748842455e-05 -3.8672087723832686e-05 -2.1679502169505936e-04
102 -4.3894684724102942e-05 -1.8850227807162041e-05 -2.0767363168956550e-04
103 -5.8963015643480771e-06 -1.2222306748186553e-05 -3.1555656877960380e-04
104 -3.5104977503306802e-05 -3.1225728528071996e-05 -2.2547839614016078e-04
105 -4.6993949241787762e-05 1.0329605550408759e-05 -2.1582130772676068e-04
106 -1.6372934183851954e-05 7.8042875572373914e-07 -3.3003085563244276e-04
107 -1.3548149088361065e-05 3.9503421447441166e-07 -3.4597969610761274e-04
108 -1.8275736270118387e-05 -3.4983971039277199e-05 -2.9021826326159885e-04
109 -2.5183835512103086e-05 -3.8382614006156878e-05 -1.7446561008555126e-04
110 -5.0247545207573582e-05 -3.9546101822401949e-06 -1.6253120930900954e-04
111 -3.2530587638790359e-05 -1.6507819530764719e-05 -2.8253714620123219e-04
112 -1.3983751385037723e-05 2.7580605124460736e-05 1.3838170059595644e-04
113 1.3156270044998220e-05 2.2724334372531279e-05 1.5127351646814928e-04
114 3.0877392602080169e-05 -1.6798875469384197e-06 1.3838169584092839e-04
115 1.3101755073343081e-05 -2.2755709646296802e-05 1.5127351282927809e-04
116 -6.7587913729235160e-07 1.4597829779971599e-05 2.3142112729581405e-04
117 1.4712449359486918e-06 8.4914473546577755e-06 2.3864831546890371e-04
118 -4.3894605416862439e-05 1.8850232398009502e-05 2.0767360674490661e-04
119 -1.6708843550862899e-05 3.8672093288275147e-05 2.1679499795054587e-04
120 -1.8275649998099158e-05 3.4983974793485047e-05 2.9021825474232442e-04
121 -5.0247453969431554e-05 3.9546188484283386e-06 1.6253117581855253e-04
122 -2.5183739536577555e-05 3.8382608800531146e-05 1.7446557785995813e-04
123 -1.8337522788544332e-05 3.0333592236085482e-05 2.4128930159372536e-04
124 -1.6893510259105916e-05 -2.5900533114263590e-05 1.3838168046459369e-04
125 -2.6257863247556353e-05 3.1524461481468366e-08 1.5127349806964198e-04
126 4.7574214442949712e-11 5.4971653208755742e-11 2.1566542668419495e-04
127 2.1699046178010112e-05 -4.5492830321085533e-05 1.6253116795445944e-04
128 -2.0648325042489780e-05 -4.1001035112340352e-05 1.7446557061311606e-04
129 2.0540163086773608e-05 -2.8132850850015827e-05 2.4330656382730675e-04
130 3.2442751439664526e-05 -3.5533038251450476e-05 2.1582126963965147e-04
131 -9.4897225873737624e-06 -4.6014562769191786e-05 2.2547835969243359e-04
132 5.6300026274154273e-05 1.5001860756902160e-05 1.7967947906246244e-04
133 3.5433734044818084e-05 -2.7808011059997945e-05 1.9055800564141292e-04
134 4.1576810545359634e-05 5.9329427503293157e-07 2.1798898333991399e-04
135 1.2007188398336159e-05 -2.5374569930068896e-05 2.2695979819212483e-04
136 2.6090772660839633e-05 -2.7603786545906536e-06 3.1339164213628891e-04
137 -8.1295460538138021e-06 -1.2049876137300471e-06 2.3585671237843071e-04
138 -1.4975513965870048e-05 7.0494129300967150e-06 2.4398956622194559e-04
139 -5.8962217972350353e-06 1.2222313323245039e-05 3.1555656112624203e-04
140 -4.6993868430908967e-05 -1.0329605952170145e-05 2.1582127030744049e-04
141 -3.5104890696382862e-05 3.1225735169463656e-05 2.2547835993124503e-04
142 -3.2530501701242435e-05 1.6507823162485911e-05 2.8253713456514936e-04
143 -4.4124038604076715e-05 -3.5109089491573242e-05 1.8400803200411639e-04
144 -4.4449088167818621e-05 1.8370240658629830e-05 1.9529256592444182e-04
145 -3.4633820685290171e-05 -3.7217552903531013e-06 2.4330656095646828e-04
146 -1.5158005236069944e-05 -5.6258069678250565e-05 1.7967944270473133e-04
147 -4.1799288977205904e-05 -1.6782388415361905e-05 1.9055797075220944e-04
148 -1.7100782989337008e-05 -3.1047518895851657e-05 2.4128928442850568e-04
149 5.6226405976861585e-06 -4.7438922602036986e-05 2.0767359161621667e-04
150 -2.5136484114906133e-05 -3.3806302543635321e-05 2.1679498346764375e-04
151 1.9691726659737575e-06 -3.6426117296003734e-05 2.8253712996608214e-04
152 5.1084418494917794e-06 -6.4378649245331666e-06 2.3585671203851699e-04
153 1.3828926849550011e-06 -1.6493854653159329e-05 2.4398956577438284e-04
154 8.8624062561809744e-06 -1.3789063257380780e-05 3.3003085856432286e-04
155 4.7761518673560102e-07 3.5349895372638625e-05 2.3615574625968427e-04
156 2.8579543759715093e-05 1.0795806501595799e-05 2.4494114297176451e-04
157 3.5438445472036824e-05 7.1408596379941400e-07 2.4128930243744214e-04