LAMMPS data file via write_data, version 30 Mar 2018, timestep = 858

222 atoms
6 atom types

0.0000000000000000e+00 1.8953887998300001e+01 xlo xhi
0.0000000000000000e+00 1.6414549063700001e+01 ylo yhi
0.0000000000000000e+00 1.0000000000000000e+02 zlo zhi
9.4769430348999997e+00 0.0000000000000000e+00 0.0000000000000000e+00 xy xz yz

Masses

1 95.94
2 32.066
3 32.066
4 95.94
5 32.066
6 32.066

Atoms # atomic

1 2 1.7148910683262553e+01 1.6288312571041885e-01 4.0527851279316263e+00 -1 1 0
2 3 1.7173586753512058e+01 1.6610336193559069e-01 7.1663478910441984e+00 -1 1 0
3 2 1.0435500851586734e+00 1.4817157120698914e+00 4.0527851277053371e+00 0 1 0
4 3 1.0340008508718499e+00 1.4587354947776876e+00 7.1663478906798943e+00 0 1 0
5 2 2.3532429059257190e+01 1.2132577847819947e+01 4.1207855925437773e+00 -1 0 0
6 3 2.3558053078737494e+01 1.2158950841247080e+01 7.2389742524191600e+00 -1 0 0
7 2 2.6349596862155138e+01 1.3453959591799764e+01 4.0746706608556149e+00 -1 0 0
8 3 2.6365376747672553e+01 1.3489237159348729e+01 7.1896993063981149e+00 -1 0 0
9 1 2.5602727606831806e+01 1.5104776728263817e+01 5.6245998458888096e+00 -1 0 0
10 2 1.0238372049299699e+01 1.4769951247452550e+01 4.0527851254436511e+00 0 0 0
11 3 1.0223245212555865e+01 1.4789711231871653e+01 7.1663478882953227e+00 0 0 0
12 1 6.0297839427093044e-07 3.0659975772350905e-07 5.5999807644805424e+00 0 1 0
13 2 1.3081507022718977e+01 1.6092441926772167e+01 4.0746706626502069e+00 0 0 0
14 3 1.3043065809418280e+01 1.6088468916388692e+01 7.1896993067961752e+00 0 0 0
15 1 2.8302383576077679e+00 1.3103659724559626e+00 5.6239729451829383e+00 0 1 0
16 2 6.4241806170115190e+00 1.0158196321537658e+00 4.1170550882481267e+00 0 1 0
17 3 6.3944677668741736e+00 1.0022160778035270e+00 7.2355641962605670e+00 0 1 0
18 1 5.6505367010360290e+00 2.6399888870189798e+00 5.6724741384943052e+00 0 1 0
19 2 9.2253491002783417e+00 2.3664964284640519e+00 4.1405529829549188e+00 0 1 0
20 3 9.2280617462200656e+00 2.3587847451840074e+00 7.2612277488565136e+00 0 1 0
21 2 2.0507527264767241e+01 7.7056285542386460e+00 4.1379161987171145e+00 -1 0 0
22 3 2.0509240115414276e+01 7.6749839977948549e+00 7.2572248826644721e+00 -1 0 0
23 2 2.3300421599177124e+01 9.0262682527937503e+00 4.1401747150158759e+00 -1 0 0
24 3 2.3305763586193354e+01 9.0261788189461711e+00 7.2601736639669374e+00 -1 0 0
25 1 2.2533932094700528e+01 1.0656408900392078e+01 5.7007538298051550e+00 -1 0 0
26 2 7.1445792236433530e+00 1.0343136425383214e+01 4.1170550799815482e+00 0 0 0
27 3 7.1476546314787681e+00 1.0375670281530285e+01 7.2355641901364010e+00 0 0 0
28 1 2.5335708600717552e+01 1.1990370309065636e+01 5.6609356166870368e+00 -1 0 0
29 2 9.9675279023004055e+00 1.1657322449223720e+01 4.0915795623668849e+00 0 0 0
30 3 9.9513343819421198e+00 1.1698902047609009e+01 7.2079483921091079e+00 0 0 0
31 1 9.1966348231877468e+00 1.3308308595608242e+01 5.6239729405950758e+00 0 0 0
32 2 1.2806445383147494e+01 1.2977557835502020e+01 4.0933988139138009e+00 0 0 0
33 3 1.2768267646044599e+01 1.3004101426715561e+01 7.2095426723946074e+00 0 0 0
34 1 1.2025292141371528e+01 1.4620225608354323e+01 5.6245998421290793e+00 0 0 0
35 2 1.5634441185656716e+01 1.4313393764692973e+01 4.1207855912736164e+00 0 0 0
36 3 1.5598789490648493e+01 1.4322398307831666e+01 7.2389742489705489e+00 0 0 0
37 1 1.4855956645323987e+01 1.5946183407048240e+01 5.6609356192757163e+00 0 0 0
38 2 1.8440587854845056e+01 1.5665624038670819e+01 4.1401747213358338e+00 0 0 0
39 3 1.8437994311578354e+01 1.5670295046323469e+01 7.2601736677362680e+00 0 0 0
40 1 8.2020434340025012e+00 8.7964850434955311e-01 5.6948757170318656e+00 0 1 0
41 2 1.1766116329391473e+01 6.0799925931987575e-01 4.1260232755037709e+00 0 1 0
42 3 1.1800615480898312e+01 6.1326890558840208e-01 7.2449864535773747e+00 0 1 0
43 1 1.1020017890392044e+01 2.2344717335307855e+00 5.6954457179263045e+00 0 1 0
44 2 1.4588717217885243e+01 1.9537555988111039e+00 4.0915795695262940e+00 0 1 0
45 3 1.4632822972131372e+01 1.9469898095040727e+00 7.2079483987482833e+00 0 1 0
46 2 2.0265659464162095e+01 4.6019291456000389e+00 4.0933988179646033e+00 -1 0 0
47 3 2.0261760897964837e+01 4.5555944594912470e+00 7.2095426777886527e+00 -1 0 0
48 1 1.9491759958864304e+01 6.2081352853923519e+00 5.6765293843567717e+00 -1 0 0
49 2 4.1204288529593613e+00 5.9207944325986510e+00 4.1260232707292532e+00 0 0 0
50 3 4.1077429210243075e+00 5.8882824717810589e+00 7.2449864505560413e+00 0 0 0
51 1 2.2297236097881168e+01 7.5357227178214785e+00 5.6972808809546338e+00 -1 0 0
52 2 6.9137155033543003e+00 7.2419148028908582e+00 4.1405529765658633e+00 0 0 0
53 3 6.9056806679396612e+00 7.2434214282308540e+00 7.2612277443251703e+00 0 0 0
54 1 6.1377203024241940e+00 8.8715475334775409e+00 5.6948757100904102e+00 0 0 0
55 2 9.7183362349120586e+00 8.5631125772509407e+00 4.1325880459752504e+00 0 0 0
56 3 9.7091070404335404e+00 8.5900932153901532e+00 7.2525999487769948e+00 0 0 0
57 1 8.9379729772450460e+00 1.0201046977564109e+01 5.6724741282426336e+00 0 0 0
58 2 1.2544287630646856e+01 9.8857563927977239e+00 4.1260232592387851e+00 0 0 0
59 3 1.2522474412551871e+01 9.9129987090889387e+00 7.2449864376644069e+00 0 0 0
60 1 1.1755328983136984e+01 1.1520830078902922e+01 5.6603209624126425e+00 0 0 0
61 2 1.5373393936559204e+01 1.1216244304046059e+01 4.1379161941034184e+00 0 0 0
62 3 1.5345998543319171e+01 1.1230083199411638e+01 7.2572248762660552e+00 0 0 0
63 1 1.4584410411272579e+01 1.2844671286540393e+01 5.6765293843686671e+00 0 0 0
64 2 1.8184006528751606e+01 1.2558464701965574e+01 4.1518709435666894e+00 0 0 0
65 3 1.8176114228184932e+01 1.2567413948077576e+01 7.2720922692215213e+00 0 0 0
66 1 1.7412089467523487e+01 1.4186754327924000e+01 5.7007538309859846e+00 0 0 0
67 2 2.0980742650746535e+01 1.3907226290132273e+01 4.1379162063708383e+00 0 0 0
68 3 2.1006425187854425e+01 1.3924031939872721e+01 7.2572248891662836e+00 0 0 0
69 1 2.0233030895640617e+01 1.5542112508357443e+01 5.6972808874677430e+00 0 0 0
70 2 2.3789559003197873e+01 1.5249612167709103e+01 4.0933988232459830e+00 0 0 0
71 3 2.3831635304653375e+01 1.5269403260808863e+01 7.2095426825606310e+00 0 0 0
72 1 1.3576610961991022e+01 4.7372054700071931e-01 5.6603209742142280e+00 0 1 0
73 1 1.6403959661763253e+01 1.7958754153517340e+00 5.6239729421920712e+00 0 1 0
74 1 1.9233644128068747e+01 3.1040967094321021e+00 5.6245998422358658e+00 -1 0 0
75 2 3.8745876938088069e+00 2.8034720368353065e+00 4.0915795719014074e+00 0 0 0
76 3 3.8466754617384087e+00 2.7686582328292140e+00 7.2079484013508726e+00 0 0 0
77 1 3.0988928984809778e+00 4.4199993565095355e+00 5.6603209717861942e+00 0 0 0
78 2 6.6788477970292011e+00 4.1347704949333988e+00 4.1325880565534696e+00 0 0 0
79 3 6.6600964799351416e+00 4.1132874574962575e+00 7.2525999590170542e+00 0 0 0
80 1 5.9020445100257533e+00 5.7536982985805754e+00 5.6954457163684911e+00 0 0 0
81 2 9.4769442682613452e+00 5.4715166948489848e+00 4.1467449201432842e+00 0 0 0
82 3 9.4769442716477830e+00 5.4715166999221960e+00 7.2681472358895052e+00 0 0 0
83 1 8.7001253688715785e+00 7.0942077881569565e+00 5.7037446408570194e+00 0 0 0
84 2 1.2291768204453348e+01 6.8061388532424685e+00 4.1405529692624974e+00 0 0 0
85 3 1.2297090400480652e+01 6.8123439207492895e+00 7.2612277356487871e+00 0 0 0
86 1 1.1508770442591789e+01 8.4263799530844210e+00 5.6954457044302584e+00 0 0 0
87 2 1.5120654394608515e+01 8.1372068569329414e+00 4.1401747046087403e+00 0 0 0
88 3 1.5117905949196992e+01 8.1326252783439479e+00 7.2601736517407565e+00 0 0 0
89 1 1.4331396885288187e+01 9.7512638162647960e+00 5.6972808697917081e+00 0 0 0
90 2 1.7939823901987026e+01 9.4685804120722441e+00 4.1518709373282627e+00 0 0 0
91 3 1.7936019765631467e+01 9.4572708506893104e+00 7.2720922636265648e+00 0 0 0
92 1 1.7156669620878105e+01 1.1083267917619288e+01 5.7122494314497692e+00 0 0 0
93 2 2.0737833423151852e+01 1.0802054034139106e+01 4.1518709435314713e+00 0 0 0
94 3 2.0749529851923878e+01 1.0804414332791627e+01 7.2720922704588462e+00 0 0 0
95 1 1.9973944025482705e+01 1.2429352343885895e+01 5.7122494389859124e+00 0 0 0
96 1 2.2785493508729814e+01 1.3776292469786041e+01 5.6765293934647101e+00 0 0 0
97 1 8.4600620879987609e+00 3.9874262472218547e+00 5.7037446469079924e+00 0 0 0
98 2 1.2033648775910613e+01 3.7166670123888386e+00 4.1325880524630483e+00 0 0 0
99 3 1.2061629294586675e+01 3.7111694228653609e+00 7.2525999542228297e+00 0 0 0
100 1 1.1270645385360707e+01 5.3329159521718186e+00 5.7037446395384244e+00 0 0 0
101 2 1.4862072972052612e+01 5.0555940272615310e+00 4.1170550762817504e+00 0 0 0
102 3 1.4888710416747069e+01 5.0366637296370760e+00 7.2355641850290739e+00 0 0 0
103 1 1.4091069107567675e+01 6.6633539449550199e+00 5.6948756998698453e+00 0 0 0
104 2 1.7694793606381321e+01 6.3831275361500470e+00 4.1207855838024114e+00 0 0 0
105 3 1.7704821278225406e+01 6.3477499925527532e+00 7.2389742430403681e+00 0 0 0
106 1 1.6915642317612022e+01 7.9859358116134116e+00 5.7007538185120197e+00 0 0 0
107 1 1.9731050234665162e+01 9.3164787754359875e+00 5.7122494334834908e+00 0 0 0
108 1 1.3842323164469551e+01 3.5735141202886296e+00 5.6724741302177275e+00 0 0 0
109 2 1.7430559965297856e+01 3.2826976302990372e+00 4.0746706587434547e+00 0 0 0
110 3 1.7453221292395135e+01 3.2513930749576989e+00 7.1896993038935246e+00 0 0 0
111 1 1.6669998631229280e+01 4.8925453288983354e+00 5.6609356091178009e+00 0 0 0
112 5 2.6650529800544561e+01 1.6248446370739757e+01 1.0512700110145740e+01 -1 0 0
113 6 2.6625853729959850e+01 1.6251666597893944e+01 1.3626262873174145e+01 -1 0 0
114 5 1.9700189972976258e+01 1.6248384977229815e+00 1.0512700111634125e+01 -1 1 0
115 6 1.9715316811954157e+01 1.6445984836707699e+00 1.3626262874694786e+01 -1 1 0
116 5 2.1774034225328155e+01 9.6022058144708726e+00 1.0417820252633021e+01 -1 0 0
117 6 2.1768712035176264e+01 9.6084108770388372e+00 1.3538495018557525e+01 -1 0 0
118 5 2.4365654039130138e+01 1.1377886002974391e+01 1.0443483803953608e+01 -1 0 0
119 6 2.4339016591988045e+01 1.1358955696326822e+01 1.3561992912090989e+01 -1 0 0
120 4 2.3319266628186327e+01 1.2841035548265266e+01 1.2006573861570086e+01 -1 0 0
121 5 7.9762767081174255e+00 1.3163156654676758e+01 1.0489348693419251e+01 0 0 0
122 6 7.9536153746057661e+00 1.3131852091334769e+01 1.3604377337670718e+01 0 0 0
123 4 2.5880902917428941e+01 1.4618674252285945e+01 1.2055075054968185e+01 -1 0 0
124 5 1.0510944050090080e+01 1.4955814232288164e+01 1.0512700113438491e+01 0 0 0
125 6 1.0520493280197455e+01 1.4932834015131423e+01 1.3626262876288282e+01 0 0 0
126 4 6.1121838674239914e-07 2.9933809034933263e-07 1.2079067237258169e+01 0 1 0
127 5 3.5661227252082877e+00 3.2608080800601508e-01 1.0489348696924615e+01 0 1 0
128 6 3.6045639373193867e+00 3.2210780754823071e-01 1.3604377342368185e+01 0 1 0
129 4 2.5483489014829690e+00 1.7943240624391519e+00 1.2054448157503154e+01 0 1 0
130 5 6.1218462006752521e+00 2.0921514137066168e+00 1.0440073751061822e+01 0 1 0
131 6 6.1574978928891770e+00 2.1011559706685308e+00 1.3558262410825456e+01 0 1 0
132 5 1.9428278776420516e+01 4.7156476852550853e+00 1.0471099604245820e+01 -1 0 0
133 6 1.9444472304878097e+01 4.7572272845984038e+00 1.3587468433382984e+01 -1 0 0
134 5 2.1999418600226011e+01 6.5015510208144747e+00 1.0434061549343093e+01 -1 0 0
135 6 2.2021231822298127e+01 6.5287933414985639e+00 1.3553024727331339e+01 -1 0 0
136 4 2.0985714474798677e+01 7.9881697193201244e+00 1.1983602284406281e+01 -1 0 0
137 5 5.6409619366135120e+00 8.2819244483637569e+00 1.0418874333840071e+01 0 0 0
138 6 5.6437103773320985e+00 8.2773428716271802e+00 1.3538873280260635e+01 0 0 0
139 4 2.3568012933350708e+01 9.7511957229678163e+00 1.1984172283995582e+01 -1 0 0
140 5 8.2278770603303748e+00 1.0066799732237532e+01 1.0440073751587466e+01 0 0 0
141 6 8.2178493780078430e+00 1.0031422187355862e+01 1.3558262409376793e+01 0 0 0
142 4 7.1930542513188049e+00 1.1522004336220128e+01 1.2018112380902268e+01 0 0 0
143 5 1.0784816467206737e+01 1.1858955265161779e+01 1.0469505328634794e+01 0 0 0
144 6 1.0788715024778089e+01 1.1812620579536086e+01 1.3585649187156044e+01 0 0 0
145 4 9.7566995368618024e+00 1.3310452956942671e+01 1.2054448158775610e+01 0 0 0
146 5 1.3323618813748958e+01 1.3645891492735537e+01 1.0471099610242321e+01 0 0 0
147 6 1.3351531043465531e+01 1.3611077694479048e+01 1.3587468439929976e+01 0 0 0
148 4 1.2307181551573240e+01 1.5104183696744894e+01 1.2055075061942425e+01 0 0 0
149 5 1.5871410909047952e+01 1.5412333648217098e+01 1.0443483812794856e+01 0 0 0
150 6 1.5901123760217937e+01 1.5398730102427383e+01 1.3561992922865620e+01 0 0 0
151 4 5.3790135591851485e+00 4.6836626239688689e-01 1.2018112386715293e+01 0 1 0
152 5 8.9610511816353142e+00 7.4425467955238123e-01 1.0418874338219458e+01 0 1 0
153 6 8.9636447241310702e+00 7.4892569254596686e-01 1.3538873287157299e+01 0 1 0
154 4 7.9351461761065121e+00 2.2277953386315308e+00 1.1978294172967320e+01 0 1 0
155 5 1.1529481855405241e+01 2.4905177874006168e+00 1.0421823118510256e+01 0 1 0
156 6 1.1503799315987832e+01 2.5073234359143775e+00 1.3541131802507458e+01 0 1 0
157 4 1.8673579430441695e+01 3.1062410768455897e+00 1.2055075060334289e+01 -1 0 0
158 5 3.2913241979496641e+00 3.4104482987457554e+00 1.0469505321144988e+01 0 0 0
159 6 3.3295019363067020e+00 3.4369919004957477e+00 1.3585649180334642e+01 0 0 0
160 4 2.1232273378456803e+01 4.8937195929709096e+00 1.2018727029142511e+01 -1 0 0
161 5 5.8690548925891601e+00 5.1844665221907151e+00 1.0421823113848639e+01 0 0 0
162 6 5.8964502807765946e+00 5.1983054292838666e+00 1.3541131796558743e+01 0 0 0
163 4 4.8544530743831924e+00 6.6632858512806852e+00 1.1981767115118519e+01 0 0 0
164 5 8.4590759125709170e+00 6.9572788698944903e+00 1.0406955732366210e+01 0 0 0
165 6 8.4628800380945481e+00 6.9459693152088668e+00 1.3527177058035408e+01 0 0 0
166 4 7.4386983002379781e+00 8.4286138519840232e+00 1.1978294170198536e+01 0 0 0
167 5 1.1032296052804666e+01 8.7395657251054502e+00 1.0421823124775367e+01 0 0 0
168 6 1.1030583192658799e+01 8.7089211712330936e+00 1.3541131806973436e+01 0 0 0
169 4 1.0014815732271291e+01 1.0206414378522856e+01 1.2002518616400891e+01 0 0 0
170 5 1.3584686641243174e+01 1.0526267255428865e+01 1.0434061564007267e+01 0 0 0
171 6 1.3597372571494653e+01 1.0493755296786409e+01 1.3553024742416889e+01 0 0 0
172 4 1.2575836458196331e+01 1.1994550311200040e+01 1.2018727039249015e+01 0 0 0
173 5 1.6137039986964613e+01 1.2301262273642074e+01 1.0426448053459000e+01 0 0 0
174 6 1.6155791309296980e+01 1.2279779238295569e+01 1.3546459956212550e+01 0 0 0
175 4 1.5127480049983498e+01 1.3774560783659668e+01 1.2006573874329780e+01 0 0 0
176 5 1.8705005047852474e+01 1.4055764987792157e+01 1.0417820257371035e+01 0 0 0
177 6 1.8702292407598584e+01 1.4048053302893598e+01 1.3538495025145044e+01 0 0 0
178 4 1.7678986576780893e+01 1.5534901165556315e+01 1.1984172292238698e+01 0 0 0
179 5 2.1277558581005344e+01 1.5801280827642778e+01 1.0434061550083479e+01 0 0 0
180 6 2.1243059431635050e+01 1.5806550466212737e+01 1.3553024730011609e+01 0 0 0
181 4 1.0756087765710436e+01 8.7243715923137066e-01 1.1981767120344388e+01 0 1 0
182 5 1.4354692128367978e+01 1.1451464728463445e+00 1.0469505322710816e+01 0 1 0
183 6 1.4312615828442532e+01 1.1649375554849137e+00 1.3585649182619417e+01 0 1 0
184 4 1.3308550173842905e+01 2.6382571982754754e+00 1.2002518616502222e+01 0 1 0
185 4 5.1074669620688589e+00 3.5698783816511237e+00 1.2002518610119420e+01 0 0 0
186 5 8.6991707372943416e+00 3.8471357724656539e+00 1.0406955731858481e+01 0 0 0
187 6 8.7070630308252248e+00 3.8560850282492973e+00 1.3527177058755106e+01 0 0 0
188 4 7.6797259662968838e+00 5.3312817464640672e+00 1.1966798563387329e+01 0 0 0
189 5 1.1272586155484467e+01 5.6101353905709690e+00 1.0406955737698455e+01 0 0 0
190 6 1.1260889719937975e+01 5.6124956920592064e+00 1.3527177064013088e+01 0 0 0
191 4 1.0254106373766668e+01 7.0980708878880652e+00 1.1966798569802691e+01 0 0 0
192 5 1.3828819676400702e+01 7.3883709098912362e+00 1.0418874349727167e+01 0 0 0
193 6 1.3823477689689527e+01 7.3882814753025734e+00 1.3538873296852241e+01 0 0 0
194 4 1.2820292027027886e+01 8.8788269492054255e+00 1.1981767131534697e+01 0 0 0
195 5 1.6382624541500142e+01 9.1711283058487751e+00 1.0417820266395731e+01 0 0 0
196 6 1.6390659385307117e+01 9.1726349294888738e+00 1.3538495032744391e+01 0 0 0
197 4 1.5378988226426113e+01 1.0660851373017534e+01 1.1983602297558923e+01 0 0 0
198 5 1.8953887936396367e+01 1.0943033036961324e+01 1.0410900765853704e+01 0 0 0
199 6 1.8953887943273919e+01 1.0943033037516209e+01 1.3532303081599922e+01 0 0 0
200 4 1.7937005596499251e+01 1.2427123425559648e+01 1.1975303361042963e+01 0 0 0
201 5 2.1538572756887419e+01 1.2703380314001103e+01 1.0426448041535487e+01 0 0 0
202 6 2.1510592243526332e+01 1.2697882714302976e+01 1.3546459944103301e+01 0 0 0
203 4 2.0496961194926996e+01 1.4180077936911287e+01 1.1983602284521375e+01 0 0 0
204 5 2.4109766230568248e+01 1.4467559925531944e+01 1.0471099598538077e+01 0 0 0
205 6 2.4065660476234758e+01 1.4460794122752217e+01 1.3587468428126909e+01 0 0 0
206 4 2.3053554062349413e+01 1.5940829121624065e+01 1.2018727028408737e+01 0 0 0
207 4 1.6125784428538719e+01 1.3097729417749324e+00 1.2054448158682472e+01 0 1 0
208 4 1.0497000530335846e+01 3.9851973209071043e+00 1.1966798568101984e+01 0 0 0
209 5 1.4081109536269846e+01 4.2555988897086481e+00 1.0440073758152971e+01 0 0 0
210 6 1.4055485518587474e+01 4.2819718782361829e+00 1.3558262417410273e+01 0 0 0
211 4 1.3056988392354993e+01 5.7581407669013007e+00 1.1978294182742571e+01 0 0 0
212 5 1.6624598872312482e+01 6.0388794531654986e+00 1.0443483817057835e+01 0 0 0
213 6 1.6621523473263675e+01 6.0714133055274893e+00 1.3561992925764295e+01 0 0 0
214 4 1.5614664387612706e+01 7.5430021384617687e+00 1.1984172301985277e+01 0 0 0
215 5 1.9186051069727096e+01 7.8244565207893846e+00 1.0426448048219525e+01 0 0 0
216 6 1.9195280275349738e+01 7.8514371565814232e+00 1.3546459949923269e+01 0 0 0
217 4 1.8177069243928823e+01 9.3203418860307572e+00 1.1975303362559298e+01 0 0 0
218 4 2.0747589053931733e+01 1.1081633719970876e+01 1.1975303354305511e+01 0 0 0
219 5 1.6888433357611060e+01 2.9253125747011479e+00 1.0489348697804285e+01 0 0 0
220 6 1.6872653477598121e+01 2.9605901359090545e+00 1.3604377342947805e+01 0 0 0
221 4 1.5858765056013326e+01 4.4241793624505386e+00 1.2018112392515185e+01 0 0 0
222 4 1.8414917218906513e+01 6.2135026964616751e+00 1.2006573872358155e+01 0 0 0

Velocities

1 -3.1226951101159662e-07 -1.8159268811241126e-06 -7.5370932768721480e-05
2 -1.1034745664111834e-06 -1.1971400501764947e-06 -7.3899944877599480e-05
3 -1.4164901589433291e-06 1.1783886861015263e-06 -7.5370932033875295e-05
4 -4.8501063489599796e-07 1.5542057913786593e-06 -7.3899943973756331e-05
5 2.4822438045810051e-06 -2.4351611877684100e-06 -6.3249716590184398e-05
6 -1.3229446624343957e-08 -2.9432907169730834e-06 -6.1740480684279031e-05
7 2.7704653719554873e-06 -2.0731480134772269e-06 -7.1258998371447513e-05
8 5.8504181698591625e-07 -2.5488144338709055e-06 -6.9567140564500259e-05
9 1.6290150821400932e-06 -1.5208759763608365e-06 3.2293317855383457e-05
10 1.7287726342310375e-06 6.3751383437575211e-07 -7.5370933318547195e-05
11 1.5884926943266499e-06 -3.5707251617773867e-07 -7.3899944777115298e-05
12 2.5395925523036333e-12 -3.5101227945409577e-12 3.8628694733175282e-05
13 4.1016543959056603e-07 3.4358523315966978e-06 -7.1258999024018582e-05
14 1.9148191639305623e-06 1.7810630814022153e-06 -6.9567141738396010e-05
15 -1.8135772193620157e-06 1.6019161664709616e-06 3.2438491855062291e-05
16 -3.5403411078127469e-07 3.4943951506642427e-06 -6.3243460998777201e-05
17 8.6092883742248975e-07 2.0668563994394275e-06 -6.1784714819833469e-05
18 -1.9377633162978462e-06 1.7489439038506892e-06 2.0478982959309965e-05
19 -5.9849542226965536e-07 8.7504689357591236e-07 -5.8830016755242631e-05
20 -5.1528297760970611e-07 9.3072615430010035e-08 -5.7786548780135774e-05
21 -1.7384914958773247e-06 -4.4082419536836380e-07 -6.0460799848568062e-05
22 -2.1286548988880418e-06 1.4498964166379657e-06 -5.9287537740904407e-05
23 1.1086604685237887e-06 -1.0797019193563856e-06 -5.9571315283769764e-05
24 -5.1126694157406887e-07 -4.2029937275985486e-07 -5.8508216649826357e-05
25 8.7539151540547154e-07 -5.4700877973184355e-07 1.3991288601877550e-05
26 3.2032632504955890e-06 -1.4406028141420934e-06 -6.3243461462732410e-05
27 1.3594905806393273e-06 -1.7790154933832117e-06 -6.1784714794539886e-05
28 2.4343596416277145e-06 -4.2484323900203223e-07 2.3336223419375436e-05
29 3.3284358699080860e-06 -1.2378610056162365e-07 -6.7860650715137648e-05
30 2.7742885712352160e-06 -1.1157185918120881e-06 -6.6233179332111418e-05
31 2.2940946550418370e-06 7.6964215159192242e-07 3.2438491279778398e-05
32 2.0693325583109483e-06 2.3229311783963522e-06 -6.7896079663639606e-05
33 3.4393174458403604e-06 6.8219633290012554e-07 -6.6192856964029354e-05
34 5.0261023351976845e-07 2.1711987801402427e-06 3.2293321049458147e-05
35 8.6778829699658347e-07 3.3672537764039195e-06 -6.3249718526318892e-05
36 2.5555811571971654e-06 1.4601835350219279e-06 -6.1740483635109894e-05
37 -8.4925487583198293e-07 2.3206322091628198e-06 2.3336225851514596e-05
38 3.8071819130325996e-07 1.4999661177424344e-06 -5.9571317414349581e-05
39 6.1962539243327965e-07 -2.3262524913334658e-07 -5.8508219018490033e-05
40 -8.7790867063902579e-07 6.9927254788490365e-07 1.5242906338696264e-05
41 -2.3727326420542247e-07 -1.5717351836988703e-06 -6.1673018607314085e-05
42 -1.2590039767887968e-06 -2.4009975166775000e-06 -6.0394674177323476e-05
43 -4.1263511767108757e-07 -1.4856128507673335e-06 1.5057741676438376e-05
44 -1.7714064246657032e-06 -2.8206250423789593e-06 -6.7860651130111408e-05
45 -2.3533786554155531e-06 -1.8447466095506175e-06 -6.6233179515778179e-05
46 -3.0463834972404887e-06 6.3061444708252466e-07 -6.7896076216364371e-05
47 -2.3104565857743301e-06 2.6374326958073864e-06 -6.6192853398907049e-05
48 -2.1692406255912762e-06 -4.6181315088394857e-07 1.9590489780263588e-05
49 -1.2425144193983868e-06 9.9134567823096644e-07 -6.1673015553606814e-05
50 -1.4498174131347056e-06 2.2908274231714308e-06 -6.0394671754094168e-05
51 -1.0743652321981057e-06 3.2362578114564016e-07 1.4671763214989050e-05
52 1.0570715401097857e-06 8.0781726950475682e-08 -5.8830015634404596e-05
53 3.3825025895975862e-07 3.9971068904188163e-07 -5.7786547786632032e-05
54 1.0445469421223062e-06 4.1065220691342953e-07 1.5242906049916545e-05
55 2.1477284276131567e-06 -3.6657899124379285e-07 -6.0190180957493162e-05
56 1.9604514970485890e-06 -6.9014509624677021e-07 -5.8990329841680596e-05
57 2.4835168768261471e-06 8.0367673109816647e-07 2.0478983925733968e-05
58 1.4797993781843636e-06 5.8036891593123023e-07 -6.1673021241618101e-05
59 2.7088287807459019e-06 1.1016285265148317e-07 -6.0394676974465870e-05
60 2.0491879526805047e-06 1.7073017884307045e-06 2.3348681092525776e-05
61 4.8749175500677906e-07 1.7259833272855438e-06 -6.0460802113811447e-05
62 2.3199802784186457e-06 1.1185197664982727e-06 -5.9287541776916031e-05
63 6.8468380202296125e-07 2.1095209561270000e-06 1.9590490438098133e-05
64 5.8043482229553052e-07 1.0881313366053653e-06 -5.8508829297761447e-05
65 1.0921321598737947e-06 3.4487027297614372e-08 -5.7609486635130017e-05
66 3.6028285195519005e-08 1.0316101277204934e-06 1.3991290799777906e-05
67 1.2510103688866990e-06 -1.2851784487194712e-06 -6.0460799540976910e-05
68 -1.9131729963969129e-07 -2.5684221038541587e-06 -5.9287538782674796e-05
69 2.5691518873882096e-07 -1.0922459975482601e-06 1.4671762208531585e-05
70 9.7706318495760378e-07 -2.9535678853952394e-06 -6.7896077326605312e-05
71 -1.1288536626517221e-06 -3.3196356513819553e-06 -6.6192853692921360e-05
72 4.5397963712142778e-07 -2.6283028590039736e-06 2.3348676784142225e-05
73 -4.8051063241674013e-07 -2.3715687577354380e-06 3.2438492081772597e-05
74 -2.1316181839164660e-06 -6.5033289920436402e-07 3.2293320572929188e-05
75 -1.5570170868896078e-06 2.9443887853679753e-06 -6.7860647739920068e-05
76 -4.2090216264257161e-07 2.9604585835108448e-06 -6.6233176857085808e-05
77 -2.5031610430578488e-06 9.2099138465725652e-07 2.3348677974987156e-05
78 -7.5639820146783378e-07 2.0432636421538055e-06 -6.0190178224165574e-05
79 -3.8254160669181076e-07 2.0428674430234104e-06 -5.8990327005098668e-05
80 -1.0802556307796339e-06 1.1001567227222906e-06 1.5057741067388109e-05
81 3.5236386939620434e-12 -6.6754664036561068e-12 -5.7665395641169035e-05
82 2.5100780966460692e-12 -2.7477303386629043e-12 -5.6688752382493286e-05
83 7.6196387131886829e-07 5.1536967369424945e-07 1.3219048106327766e-05
84 -4.5856471503876928e-07 -9.5584924539051272e-07 -5.8830020131698294e-05
85 1.7704011931021990e-07 -4.9279122727581829e-07 -5.7786551650842674e-05
86 1.4928969459949880e-06 3.8544709716133723e-07 1.5057745552574669e-05
87 -1.4893673990921717e-06 -4.2028408609710073e-07 -5.9571319245905959e-05
88 -1.0835052853142492e-07 6.5291825743093445e-07 -5.8508221921860543e-05
89 8.1745630983956722e-07 7.6861138705481304e-07 1.4671768102378917e-05
90 -1.2325662400063409e-06 -4.1406753549533190e-08 -5.8508830113860046e-05
91 -5.7592978940648002e-07 9.2856548217183348e-07 -5.7609486725924007e-05
92 1.4179325480279752e-07 6.6916074723460388e-07 1.1423542654799091e-05
93 6.5214252569319733e-07 -1.0467434791431889e-06 -5.8508828357296916e-05
94 -5.1619431874738679e-07 -9.6305756196730256e-07 -5.7609484728300538e-05
95 5.0861877710719342e-07 -4.5737935591338985e-07 1.1423539406861800e-05
96 1.4845626735128913e-06 -1.6477168838029303e-06 1.9590485282456415e-05
97 -8.2730505521291361e-07 4.0218914550941800e-07 1.3219047187524524e-05
98 -1.3913186180748664e-06 -1.6767052916423951e-06 -6.0190182074191137e-05
99 -1.5779019215070960e-06 -1.3527306539935234e-06 -5.8990329973183030e-05
100 6.5347550544548647e-08 -9.1756775106459995e-07 1.3219049638250575e-05
101 -2.8492173251508310e-06 -2.0538136552947148e-06 -6.3243464023944110e-05
102 -2.2204117725971077e-06 -2.8784767178884967e-07 -6.1784718168284001e-05
103 -1.6663214055743877e-07 -1.1099338415570650e-06 1.5242911249826135e-05
104 -3.3500204928481289e-06 -9.3211304131403251e-07 -6.3249718604755674e-05
105 -2.5423438447062972e-06 1.4831010134582613e-06 -6.1740484275528534e-05
106 -9.1141395215171479e-07 -4.8460978558803813e-07 1.3991294284742363e-05
107 -6.5040668226536202e-07 -2.1178954834109987e-07 1.1423541013407761e-05
108 -5.4574701644483238e-07 -2.5526303356453501e-06 2.0478985376438288e-05
109 -3.1806177552924968e-06 -1.3627275042279284e-06 -7.1259000015710093e-05
110 -2.4998526360801892e-06 7.6774490548234452e-07 -6.9567141592862401e-05
111 -1.5850981933046057e-06 -1.8957986149323728e-06 2.3336228426501176e-05
112 -1.1034652011666520e-06 1.1971609966036769e-06 7.3897927949528348e-05
113 -3.1224740507532883e-07 1.8159304266293263e-06 7.5368941859392413e-05
114 1.5884881348064390e-06 3.5705402480837036e-07 7.3897928355344625e-05
115 1.7287617475568281e-06 -6.3754754869672667e-07 7.5368942592755802e-05
116 1.7702644996456097e-07 4.9281034298103451e-07 5.7784852632521337e-05
117 -4.5854937447847699e-07 9.5584456496259926e-07 5.8828312669424043e-05
118 -2.2204339028523518e-06 2.8789717950887862e-07 6.1782932549125539e-05
119 -2.8491919015196521e-06 2.0538465290725948e-06 6.3241677229615499e-05
120 -5.4576719803276953e-07 2.5525986254749063e-06 -2.0477570923249002e-05
121 -2.4998774120667371e-06 -7.6769225386613061e-07 6.9565205383934336e-05
122 -3.1806076156433659e-06 1.3627682234373844e-06 7.1257077959649369e-05
123 -4.8053218181188060e-07 2.3715392395013467e-06 -3.2436952192019709e-05
124 -4.8504233295402385e-07 -1.5541930443872027e-06 7.3897929864816779e-05
125 -1.4165168584084281e-06 -1.1783736365899952e-06 7.5368943522494117e-05
126 -2.2983444903814714e-12 3.5545866002738644e-12 -3.8627096662203884e-05
127 1.9147774077355039e-06 -1.7810958432719338e-06 6.9565204080068222e-05
128 4.1011347606113129e-07 -3.4358652004328071e-06 7.1257076415531223e-05
129 5.0262574301556334e-07 -2.1711729447792277e-06 -3.2291782266057879e-05
130 2.5555438461038271e-06 -1.4602231700645045e-06 6.1738702805912084e-05
131 8.6774677984402464e-07 -3.3672713095262767e-06 6.3247931643993586e-05
132 2.7743036447555194e-06 1.1156975560719338e-06 6.6231305853819806e-05
133 3.3284390082393628e-06 1.2372540993283053e-07 6.7858788014171073e-05
134 2.7088132484039627e-06 -1.1017127360882285e-07 6.0392922657952997e-05
135 1.4797989308429282e-06 -5.8040847349208963e-07 6.1671261903707746e-05
136 1.4928852182281800e-06 -3.8543740231729726e-07 -1.5056392998617566e-05
137 -1.0837951414553046e-07 -6.5289093883603738e-07 5.8506509553901445e-05
138 -1.4893599952199585e-06 4.2028787264683186e-07 5.9569598672055111e-05
139 -1.6664267529723072e-07 1.1099115774684093e-06 -1.5241545655566456e-05
140 -2.5423750001189678e-06 -1.4830485473383378e-06 6.1738707062686867e-05
141 -3.3500200829135292e-06 9.3214806015878416e-07 6.3247935654146066e-05
142 -1.5851055347953009e-06 1.8957571262628532e-06 -2.3334774464160368e-05
143 -2.3104902087675357e-06 -2.6373925654208733e-06 6.6190987919067138e-05
144 -3.0464126769700818e-06 -6.3057887212804296e-07 6.7894214223236275e-05
145 -2.1316090013020765e-06 6.5030285257960867e-07 -3.2291781480499087e-05
146 -4.2094354984114085e-07 -2.9604609788524328e-06 6.6231307280911826e-05
147 -1.5570742524647717e-06 -2.9443715337546340e-06 6.7858786608222812e-05
148 -1.8135473949782263e-06 -1.6019157619718362e-06 -3.2436956503148075e-05
149 8.6088966800039121e-07 -2.0668879410616973e-06 6.1782931432910671e-05
150 -3.5408673733070515e-07 -3.4943904009955660e-06 6.3241676383971062e-05
151 -8.4922107088446476e-07 -2.3206140929268465e-06 -2.3334776747506278e-05
152 6.1960949011509799e-07 2.3259820204199046e-07 5.8506507036753843e-05
153 3.8069976085142279e-07 -1.4999627164630504e-06 5.9569596260968238e-05
154 3.6042389633581512e-08 -1.0315953639725156e-06 -1.3989925317047517e-05
155 -1.9129846308852615e-07 2.5684138906325676e-06 5.9285816332163555e-05
156 1.2510263710916039e-06 1.2851736912552072e-06 6.0459065952831492e-05
157 2.2940725447130596e-06 -7.6961384171466555e-07 -3.2436956943536083e-05