LAMMPS data file via write_data, version 3 Mar 2020, timestep = 315

366 atoms
6 atom types

0.0000000000000000e+00 2.4336737133100002e+01 xlo xhi
0.0000000000000000e+00 2.1076232595699999e+01 ylo yhi
0.0000000000000000e+00 1.0000000000000000e+02 zlo zhi
1.2168368578300001e+01 0.0000000000000000e+00 0.0000000000000000e+00 xy xz yz

Masses

1 95.94
2 32.066
3 32.066
4 95.94
5 32.066
6 32.066

Atoms # atomic

1 2 2.2528979583246347e+01 1.3468072444089549e-01 4.0182164882539828e+00 -1 1 0
2 3 2.2554395012486037e+01 1.3660860160355448e-01 7.1333533957218727e+00 -1 1 0
3 2 1.0205161197885297e+00 1.4982246578017353e+00 4.0182164877461757e+00 0 1 0
4 3 1.0094779979289372e+00 1.4752503116160756e+00 7.1333533952057788e+00 0 1 0
5 2 3.1663917325172132e+01 1.6713522304611693e+01 4.0962027652836159e+00 -1 0 0
6 3 3.1702006919743372e+01 1.6754914857825462e+01 7.2130669454283485e+00 -1 0 0
7 2 3.4468093026449523e+01 1.8081344644506551e+01 4.0408535304377562e+00 -1 0 0
8 3 3.4487857436658580e+01 1.8120762185277322e+01 7.1564110131598735e+00 -1 0 0
9 1 3.3697476250687224e+01 1.9722384480369325e+01 5.5901739873346843e+00 -1 0 0
10 2 1.2955611547586118e+01 1.9443328441359412e+01 4.0182164869109700e+00 0 0 0
11 3 1.2941234243256893e+01 1.9464374908319030e+01 7.1333533943600775e+00 0 0 0
12 1 5.1350364948553881e-07 4.0930202244103367e-07 5.5659928110433032e+00 0 1 0
13 2 1.5780525091874097e+01 2.0809572009633975e+01 4.0408535294380572e+00 0 0 0
14 3 1.5736506295806386e+01 2.0806979718807646e+01 7.1564110121549662e+00 0 0 0
15 1 2.8091062038884838e+00 1.3543039438295743e+00 5.5897444896291839e+00 0 1 0
16 2 6.4190637102474364e+00 1.1131567844258425e+00 4.0934784524796832e+00 0 1 0
17 3 6.3690084556354885e+00 1.0951488196214261e+00 7.2105888394320665e+00 0 1 0
18 2 9.2036488943390502e+00 2.5102483675506719e+00 4.1444386540948388e+00 0 1 0
19 3 9.1740450463532053e+00 2.4914376494854458e+00 7.2635416615341484e+00 0 1 0
20 2 2.8714275926235047e+01 1.2221109427256865e+01 4.1695897846209764e+00 -1 0 0
21 3 2.8727885890304279e+01 1.2219861725511109e+01 7.2888499475097470e+00 -1 0 0
22 2 3.1476850371829716e+01 1.3594531408842601e+01 4.1391184576432805e+00 -1 0 0
23 3 3.1495789151201031e+01 1.3626715009535873e+01 7.2576451499482584e+00 -1 0 0
24 1 3.0694481109201341e+01 1.5229315778843040e+01 5.6888903083059912e+00 -1 0 0
25 2 9.9228591897252159e+00 1.4960583021936483e+01 4.0934784530969566e+00 0 0 0
26 3 9.9322914634090385e+00 1.5012936126063924e+01 7.2105888400381071e+00 0 0 0
27 1 3.3476378250276198e+01 1.6606083544041145e+01 5.6305969875251325e+00 -1 0 0
28 2 1.2731228420687660e+01 1.6321808739365864e+01 4.0602737947896728e+00 0 0 0
29 3 1.2715254949250783e+01 1.6372840858874014e+01 7.1763109133713101e+00 0 0 0
30 1 1.1936677510958724e+01 1.7966324349179001e+01 5.5897444893778312e+00 0 0 0
31 2 1.5552839337784489e+01 1.7686725517369656e+01 4.0616385693792125e+00 0 0 0
32 3 1.5508660000709451e+01 1.7719883367830523e+01 7.1775355592629069e+00 0 0 0
33 1 1.4744651292904956e+01 1.9321678386350431e+01 5.5901739855530641e+00 0 0 0
34 2 1.8367181835547882e+01 1.9064995785982035e+01 4.0962027633216511e+00 0 0 0
35 3 1.8312290035586038e+01 1.9077286064867181e+01 7.2130669434426826e+00 0 0 0
36 1 1.7553996070425935e+01 2.0688352370724655e+01 5.6305969862248748e+00 0 0 0
37 2 2.1161840662954443e+01 2.0462486501419015e+01 4.1391184564517252e+00 0 0 0
38 3 2.1124499457159342e+01 2.0462796164151008e+01 7.2576451487728182e+00 0 0 0
39 1 8.1884445005418893e+00 1.0013261857074705e+00 5.6847874394251452e+00 0 1 0
40 2 1.1772888570079797e+01 7.9944229185392079e-01 4.1612573920311489e+00 0 1 0
41 3 1.1772982094543263e+01 7.9776499332412687e-01 7.2807874967662531e+00 0 1 0
42 1 1.0983234085328847e+01 2.4099330842250741e+00 5.7207675296246263e+00 0 1 0
43 2 1.4553376737049017e+01 2.2147986943203506e+00 4.1502879625230058e+00 0 1 0
44 3 1.4589537083994371e+01 2.2117160108797340e+00 7.2694252855467019e+00 0 1 0
45 2 2.5777801804233022e+01 7.7409149388049574e+00 4.1237353271909880e+00 -1 0 0
46 3 2.5776384739259022e+01 7.6843242687427145e+00 7.2412508935484450e+00 -1 0 0
47 2 2.8551469358700420e+01 9.1097277355313935e+00 4.1529037810632685e+00 -1 0 0
48 3 2.8545979851441313e+01 9.0739420127471035e+00 7.2716763343920121e+00 -1 0 0
49 1 2.7746654500066846e+01 1.0708774681974830e+01 5.7277916358067964e+00 -1 0 0
50 2 6.9742620379618510e+00 1.0480891933094549e+01 4.1612573922554477e+00 0 0 0
51 3 6.9727626930497868e+00 1.0481649586835418e+01 7.2807874969373261e+00 0 0 0
52 1 3.0511283697546880e+01 1.2099254928209460e+01 5.7189935500681974e+00 -1 0 0
53 2 9.7404833995045212e+00 1.1850515722867955e+01 4.1444386542744445e+00 0 0 0
54 3 9.7389947644002621e+00 1.1885558765774840e+01 7.2635416616830373e+00 0 0 0
55 1 8.9413206548378454e+00 1.3484169608218719e+01 5.6847874401319318e+00 0 0 0
56 2 1.2528876062257906e+01 1.3216460716092820e+01 4.1185296129630000e+00 0 0 0
57 3 1.2515213690017303e+01 1.3267811445471542e+01 7.2365300450247902e+00 0 0 0
58 1 1.1722559446323913e+01 1.4855391629495871e+01 5.6461654126147520e+00 0 0 0
59 2 1.5338279192591505e+01 1.4582757260378019e+01 4.1077472584390815e+00 0 0 0
60 3 1.5303652538928130e+01 1.4628918188823512e+01 7.2250451783389469e+00 0 0 0
61 1 1.4520956250608553e+01 1.6216988134773395e+01 5.6302679675155236e+00 0 0 0
62 2 1.8151665645001604e+01 1.5957777572713024e+01 4.1237353245250237e+00 0 0 0
63 3 1.8103365219416141e+01 1.5987300122969147e+01 7.2412508908221627e+00 0 0 0
64 1 1.7329174829347163e+01 1.7582939042328977e+01 5.6492541795811482e+00 0 0 0
65 2 2.0951026748665019e+01 1.7348925256192647e+01 4.1534837661138724e+00 0 0 0
66 3 2.0912290322225001e+01 1.7364951305651292e+01 7.2719710679019318e+00 0 0 0
67 1 2.0137260499192340e+01 1.8967542659358635e+01 5.6888903065205190e+00 0 0 0
68 2 2.3732546210721093e+01 1.8756737843448601e+01 4.1695897836377549e+00 0 0 0
69 3 2.3726821769576574e+01 1.8769148268520379e+01 7.2888499465532970e+00 0 0 0
70 1 2.2939571417807912e+01 2.0373919473741029e+01 5.7189935492038888e+00 0 0 0
71 2 2.6508485081499860e+01 2.0171434067908930e+01 4.1529037809772067e+00 0 0 0
72 3 2.6542221179790410e+01 2.0184572875688964e+01 7.2716763343608273e+00 0 0 0
73 1 1.3568927426200821e+01 7.1283560416697356e-01 5.7170030101654854e+00 0 1 0
74 2 1.7128267639897892e+01 5.0151560174723731e-01 4.1077472611063310e+00 0 1 0
75 3 1.7185557502796243e+01 5.0842269902731207e-01 7.2250451811133019e+00 0 1 0
76 1 1.6367807645982936e+01 2.1163156860505477e+00 5.6846209661711455e+00 0 1 0
77 2 1.9937855785991161e+01 1.8897620608882360e+00 4.0602737975102663e+00 0 1 0
78 3 1.9990037634441663e+01 1.8780794333071946e+00 7.1763109161711576e+00 0 1 0
79 2 2.5579902115261639e+01 4.6257913651329048e+00 4.0616385718585715e+00 -1 0 0
80 3 2.5573276243934089e+01 4.5709520108333965e+00 7.1775355617862981e+00 -1 0 0
81 2 4.0385604179014463e+00 5.9919609586742082e+00 4.1077472601753300e+00 0 0 0
82 3 4.0158972091706246e+00 5.9388929326127400e+00 7.2250451801167364e+00 0 0 0
83 1 2.7568132637870971e+01 7.5848707465026779e+00 5.6872560037711812e+00 -1 0 0
84 2 6.8097525535817054e+00 7.3652403457435920e+00 4.1502879616132198e+00 0 0 0
85 3 6.7890026981727996e+00 7.3354659073146724e+00 7.2694252845561875e+00 0 0 0
86 1 6.0012390171090439e+00 8.9687800016938581e+00 5.7170030099144480e+00 0 0 0
87 2 9.5723554155453776e+00 8.7438428464291746e+00 4.1683804542160772e+00 0 0 0
88 3 9.5613102507662830e+00 8.7467837485286566e+00 7.2885086050335905e+00 0 0 0
89 1 8.7638152195919563e+00 1.0359507381164812e+01 5.7207675295919733e+00 0 0 0
90 2 1.2346536895434097e+01 1.0121733358825049e+01 4.1621651376081639e+00 0 0 0
91 3 1.2339414109080435e+01 1.0149167257208422e+01 7.2820401771031538e+00 0 0 0
92 1 1.1533619081621090e+01 1.1743985276246491e+01 5.7027697382928251e+00 0 0 0
93 2 1.5141977959608276e+01 1.1496194779359717e+01 4.1502879610716228e+00 0 0 0
94 3 1.5126567467163744e+01 1.1529051901519649e+01 7.2694252840038667e+00 0 0 0
95 1 1.4320051293251945e+01 1.3116779545241952e+01 5.6846209636732583e+00 0 0 0
96 2 1.7950258521392133e+01 1.2871304611602678e+01 4.1529037797655706e+00 0 0 0
97 3 1.7922011929643340e+01 1.2893951527207447e+01 7.2716763330725689e+00 0 0 0
98 1 1.7121361991979231e+01 1.4485327687176527e+01 5.6872560016686933e+00 0 0 0
99 2 2.0752027597695839e+01 1.4254414436502653e+01 4.1713994414422153e+00 0 0 0
100 3 2.0722988764697014e+01 1.4265640718996218e+01 7.2903864596512431e+00 0 0 0
101 1 1.9927654893362469e+01 1.5864278463709086e+01 5.7109831521196126e+00 0 0 0
102 2 2.3535207223354604e+01 1.5649798365261347e+01 4.1854119910378786e+00 0 0 0
103 3 2.3526534870784499e+01 1.5660228076034890e+01 7.3047707914636382e+00 0 0 0
104 1 2.2729953545535967e+01 1.7262786614002074e+01 5.7332193545609931e+00 0 0 0
105 2 2.6305408786874597e+01 1.7053475961496332e+01 4.1713994423678802e+00 0 0 0
106 3 2.6329650447661916e+01 1.7073011187029397e+01 7.2903864606163520e+00 0 0 0
107 1 2.5526077232068165e+01 1.8674920481532457e+01 5.7277916351963682e+00 0 0 0
108 2 2.9080745512482505e+01 1.8453773904458952e+01 4.1237353268255790e+00 0 0 0
109 3 2.9130463003257493e+01 1.8480842024421904e+01 7.2412508931953905e+00 0 0 0
110 1 2.8320718331496330e+01 2.0082267983272196e+01 5.6872560039643973e+00 0 0 0
111 2 3.1877471508882540e+01 1.9839949535457510e+01 4.0616385718938037e+00 0 0 0
112 3 3.1928276719179696e+01 1.9861631038143589e+01 7.1775355618322907e+00 0 0 0
113 1 1.8952214563882013e+01 3.9222259727673031e-01 5.6302679704409195e+00 0 1 0
114 1 2.1759323536725830e+01 1.7556055301323297e+00 5.5897444914378429e+00 0 1 0
115 1 2.4568085419368376e+01 3.1084035521453353e+00 5.5901739876923582e+00 -1 0 0
116 2 3.8360230438760001e+00 2.8646630220529645e+00 4.0602737956187243e+00 0 0 0
117 3 3.7998146686974983e+00 2.8253135288638616e+00 7.1763109142222063e+00 0 0 0
118 1 3.0319364364550672e+00 4.4670230902896391e+00 5.6302679693729827e+00 0 0 0
119 2 6.6265094990769429e+00 4.2420947517829415e+00 4.1185296134770146e+00 0 0 0
120 3 6.5888696497100598e+00 4.2045874250731607e+00 7.2365300455640700e+00 0 0 0
121 1 5.8172483108007862e+00 5.8431385897387917e+00 5.6846209646981931e+00 0 0 0
122 2 9.3977915920443067e+00 5.6315480805817151e+00 4.1621651377498017e+00 0 0 0
123 3 9.3775945322721324e+00 5.6116626176758508e+00 7.2820401772601278e+00 0 0 0
124 1 8.5894943692368724e+00 7.2360351219841794e+00 5.7233399645331602e+00 0 0 0
125 2 1.2168369083390585e+01 7.0254112728497109e+00 4.1760622649826606e+00 0 0 0
126 3 1.2168369082738401e+01 7.0254112730328844e+00 7.2965929863635770e+00 0 0 0
127 1 1.1359793879900185e+01 8.6326587238069781e+00 5.7329696069596174e+00 0 0 0
128 2 1.4954581315524157e+01 8.4144092709389575e+00 4.1683804548325236e+00 0 0 0
129 3 1.4962650792999577e+01 8.4225042138835811e+00 7.2885086056867481e+00 0 0 0
130 1 1.4140212044817121e+01 1.0019495767675048e+01 5.7233399645188410e+00 0 0 0
131 2 1.7757956642132651e+01 9.7958995941309635e+00 4.1612573926434431e+00 0 0 0
132 3 1.7759362461462302e+01 9.7968192395001115e+00 7.2807874973646936e+00 0 0 0
133 1 1.6934940806111076e+01 1.1394618214561193e+01 5.7170030093939594e+00 0 0 0
134 2 2.0563390824570455e+01 1.1174619143792182e+01 4.1695897845018122e+00 0 0 0
135 3 2.0555505300537828e+01 1.1163456421501770e+01 7.2888499474162414e+00 0 0 0
136 1 1.9737481228427139e+01 1.2768771252737748e+01 5.7277916347197646e+00 0 0 0
137 2 2.3352748835055621e+01 1.2557188308751964e+01 4.1854119917157808e+00 0 0 0
138 3 2.3348052616329575e+01 1.2544462977360142e+01 7.3047707921497826e+00 0 0 0
139 1 2.2536844069078555e+01 1.4155404903383918e+01 5.7457891089420583e+00 0 0 0
140 2 2.6122256903063764e+01 1.3945479739941803e+01 4.1854119917840862e+00 0 0 0
141 3 2.6135625472899605e+01 1.3947775362110571e+01 7.3047707922127971e+00 0 0 0
142 1 2.5327255777767927e+01 1.5557284323713608e+01 5.7457891093123417e+00 0 0 0
143 2 2.8885834194018788e+01 1.5333882234287399e+01 4.1534837678302541e+00 0 0 0
144 3 2.8919081372920445e+01 1.5359415938324029e+01 7.2719710696385693e+00 0 0 0
145 1 2.8111778282983106e+01 1.6962471653577921e+01 5.7109831539531672e+00 0 0 0
146 1 3.0899422038416336e+01 1.8353491112065559e+01 5.6492541820792219e+00 0 0 0
147 1 5.6103120011697429e+00 2.7243386216428931e+00 5.6461654128945051e+00 0 0 0
148 1 8.3993391269948408e+00 4.1164146438245188e+00 5.7027697384814395e+00 0 0 0
149 2 1.1978170519116022e+01 3.9179817014483675e+00 4.1683804546255985e+00 0 0 0
150 3 1.1981146204804634e+01 3.9069458568905024e+00 7.2885086054924333e+00 0 0 0
151 1 1.1180739561810352e+01 5.5215408806021422e+00 5.7329696071733869e+00 0 0 0
152 2 1.4760778762746655e+01 5.3229523796081732e+00 4.1621651389298675e+00 0 0 0
153 3 1.4788098607421016e+01 5.3154039444992858e+00 7.2820401785012203e+00 0 0 0
154 1 1.3964573807478759e+01 6.9220342151944259e+00 5.7329696076886156e+00 0 0 0
155 2 1.7560974956443346e+01 6.7154697291969470e+00 4.1444386560883002e+00 0 0 0
156 3 1.7592067438772951e+01 6.6992374045308116e+00 7.2635416635906020e+00 0 0 0
157 1 1.6758057944454794e+01 8.3067933547329886e+00 5.7207675306597370e+00 0 0 0
158 2 2.0371521926897000e+01 8.0954485052426133e+00 4.1391184589784356e+00 0 0 0
159 3 2.0389924352983325e+01 8.0629552421287869e+00 7.2576451513606424e+00 0 0 0
160 1 1.9559357845399422e+01 9.6792920142926917e+00 5.7189935506839058e+00 0 0 0
161 2 2.3173352018923183e+01 9.4696589245349561e+00 4.1534837685292150e+00 0 0 0
162 3 2.3178841265876272e+01 9.4280991718435150e+00 7.2719710703720537e+00 0 0 0
163 1 2.2358486873430046e+01 1.1053324043770120e+01 5.7332193560334055e+00 0 0 0
164 2 2.5952776576953035e+01 1.0844576016421000e+01 4.1713994429730255e+00 0 0 0
165 3 2.5957573748073123e+01 1.0813814509592085e+01 7.2903864612090139e+00 0 0 0
166 1 2.5146113113342210e+01 1.2439777188968749e+01 5.7457891097899276e+00 0 0 0
167 1 2.7921772541477107e+01 1.3836355758462764e+01 5.7332193558355558e+00 0 0 0
168 1 1.3775400835297248e+01 3.8207029302827693e+00 5.7233399654832606e+00 0 0 0
169 2 1.7349721689057450e+01 3.6176783525744387e+00 4.1185296155479918e+00 0 0 0
170 3 1.7401023910680674e+01 3.6038349496271276e+00 7.2365300477263084e+00 0 0 0
171 1 1.6572149041107199e+01 5.2158339003947400e+00 5.7027697404341504e+00 0 0 0
172 2 2.0163184350502981e+01 5.0024940149046913e+00 4.0934784554550534e+00 0 0 0
173 3 2.0203807332307534e+01 4.9681488749482527e+00 7.2105888424914308e+00 0 0 0
174 1 1.9375342094631293e+01 6.5907380271780749e+00 5.6847874421997338e+00 0 0 0
175 2 2.2979113801117666e+01 6.3739483262811092e+00 4.0962027665790854e+00 0 0 0
176 3 2.2995916007470857e+01 6.3202654937511049e+00 7.2130669467740205e+00 0 0 0
177 1 2.2178471352903916e+01 7.9556079787859533e+00 5.6888903095579133e+00 0 0 0
178 1 2.4970779784527071e+01 9.3257162993695175e+00 5.7109831545734338e+00 0 0 0
179 1 1.9172235803200319e+01 3.4965035707583927e+00 5.6461654154696586e+00 0 0 0
180 2 2.2761594843668373e+01 3.2615497644727278e+00 4.0408535319421013e+00 0 0 0
181 3 2.2785849231964228e+01 3.2247245129322213e+00 7.1564110147021740e+00 0 0 0
182 1 2.1979838641623786e+01 4.8580305032908786e+00 5.6305969894503765e+00 0 0 0
183 1 2.4781616094238711e+01 6.2160362633842769e+00 5.6492541826833058e+00 0 0 0
184 5 3.4722763582340065e+01 2.0939624800548209e+01 1.0545694233990421e+01 -1 0 0
185 6 3.4697348153167397e+01 2.0941552679313872e+01 1.3660831141457786e+01 -1 0 0
186 5 2.5109602791689525e+01 1.6118584938415292e+00 1.0545694234539551e+01 -1 1 0
187 6 2.5123980096071776e+01 1.6329049622299572e+00 1.3660831142000326e+01 -1 1 0
188 5 2.9760436003377045e+01 1.4376995997884212e+01 1.0415505967274285e+01 -1 0 0
189 6 2.9729343520099949e+01 1.4360763673039125e+01 1.3534608974750798e+01 -1 0 0
190 5 3.2372175897977300e+01 1.6108084527337759e+01 1.0468458788989924e+01 -1 0 0
191 6 3.2331552915600007e+01 1.6073739387925560e+01 1.3585569175986684e+01 -1 0 0
192 5 1.0617480665695355e+01 1.7851508889341986e+01 1.0522636616619891e+01 0 0 0
193 6 1.0593226277302692e+01 1.7814683638985674e+01 1.3638194099358044e+01 0 0 0
194 4 3.3927692104911870e+01 1.9320627873289954e+01 1.2089303139112243e+01 -1 0 0
195 5 1.3177846566347593e+01 1.9600983090651397e+01 1.0545694235360006e+01 0 0 0
196 6 1.3188884688379046e+01 1.9578008745951951e+01 1.3660831142808469e+01 0 0 0
197 4 5.0514734440409469e-07 3.9851334604203332e-07 1.2113054818682457e+01 0 1 0
198 5 3.5681377096777025e+00 2.6925368346542028e-01 1.0522636617536381e+01 0 1 0
199 6 3.6121565059078025e+00 2.6666139396225325e-01 1.3638194100239618e+01 0 1 0
200 4 2.5762827083608606e+00 1.7545550170649982e+00 1.2088873643404302e+01 0 1 0
201 5 6.1439214518496419e+00 1.9989473374936728e+00 1.0465980685697412e+01 0 1 0
202 6 6.1988132518276746e+00 2.0112376171627364e+00 1.3582844865805797e+01 0 1 0
203 5 2.7294936026865251e+01 9.5471815011665608e+00 1.0409622344759137e+01 -1 0 0
204 6 2.7310346518396774e+01 9.5800386225304859e+00 1.3528759667761886e+01 -1 0 0
205 5 2.9927731023218993e+01 1.1279414163012964e+01 1.0398260132833579e+01 -1 0 0
206 6 2.9926325202769167e+01 1.1280333807611475e+01 1.3517790237575166e+01 -1 0 0
207 4 2.8926426507124539e+01 1.2769440048027048e+01 1.1958280099671535e+01 -1 0 0
208 5 8.2215557830649839e+00 1.3013278160432181e+01 1.0421402480116413e+01 0 0 0
209 6 8.2031533561612804e+00 1.2980784896896580e+01 1.3539929172472172e+01 0 0 0
210 4 3.1543710658704171e+01 1.4485495375711290e+01 1.1994260189210683e+01 -1 0 0
211 5 1.0827547438670724e+01 1.4755967908971204e+01 1.0465980685281085e+01 0 0 0
212 6 1.0810745232093261e+01 1.4702285076567600e+01 1.3582844865434835e+01 0 0 0
213 4 9.8114700738910692e+00 1.6218202899938163e+01 1.2048450642334924e+01 0 0 0
214 5 1.3404907676403528e+01 1.6505281391981296e+01 1.0501512070000842e+01 0 0 0
215 6 1.3411533548004190e+01 1.6450442038327406e+01 1.3617409059893271e+01 0 0 0
216 4 1.2399716853105218e+01 1.7967829851360932e+01 1.2088873643663549e+01 0 0 0
217 5 1.5968183235922007e+01 1.8250919873913844e+01 1.0502736716764673e+01 0 0 0
218 6 1.6004391611535926e+01 1.8211570381640740e+01 1.3618773835332062e+01 0 0 0
219 4 1.4977474772500010e+01 1.9721929459750317e+01 1.2089303140841240e+01 0 0 0
220 5 1.8537377024838740e+01 1.9981084583063829e+01 1.0468458790693996e+01 0 0 0
221 6 1.8587432279792463e+01 1.9963076619138437e+01 1.3585569177604190e+01 0 0 0
222 4 5.3856274845046928e+00 3.8788103278145614e-01 1.2048450643409959e+01 0 1 0
223 5 8.9561308718994823e+00 6.1343723852689858e-01 1.0421402480730332e+01 0 1 0
224 6 8.9934720779173638e+00 6.1374690187382386e-01 1.3539929173008369e+01 0 1 0
225 4 7.9688919155692615e+00 2.1086907440991340e+00 1.1990157322654330e+01 0 1 0
226 5 1.1558453186455621e+01 2.3070851343752414e+00 1.0390197682586896e+01 0 1 0
227 6 1.1564177627852009e+01 2.3194955596725024e+00 1.3509457845471809e+01 0 1 0
228 5 2.4883623501881427e+01 4.7033925436042194e+00 1.0502736714404005e+01 -1 0 0
229 6 2.4899596973204865e+01 4.7544246636568204e+00 1.3618773833045742e+01 -1 0 0
230 5 2.7472021094356066e+01 6.4473152136096354e+00 1.0454002449789465e+01 -1 0 0
231 6 2.7506647747413915e+01 6.4934761419244014e+00 1.3571300369762168e+01 -1 0 0
232 4 2.6488419850223476e+01 7.9594538578228518e+00 1.1994426664451888e+01 -1 0 0
233 5 5.7536433545889789e+00 8.1822818752878508e+00 1.0407371296137441e+01 0 0 0
234 6 5.7818899454241874e+00 8.2049287902023291e+00 1.3526143849495712e+01 0 0 0
235 4 2.9103309365354423e+01 9.6816151882039847e+00 1.1962044619997537e+01 -1 0 0
236 5 8.3871367275537843e+00 9.9127769812739253e+00 1.0390197683143466e+01 0 0 0
237 6 8.3950222508071040e+00 9.9016142580394142e+00 1.3509457846064230e+01 0 0 0
238 4 7.3909892734626172e+00 1.1396941388524105e+01 1.1960054080170742e+01 0 0 0
239 5 1.1010472694422344e+01 1.1648134231348438e+01 1.0407076561194533e+01 0 0 0
240 6 1.1004983447221802e+01 1.1606574477806186e+01 1.3525563863006671e+01 0 0 0
241 4 1.0010102782549266e+01 1.3120625424380407e+01 1.1990157322324571e+01 0 0 0
242 5 1.3608016169147808e+01 1.3391909134773192e+01 1.0437796738295392e+01 0 0 0
243 6 1.3609433234461742e+01 1.3335318464191900e+01 1.3555312304607561e+01 0 0 0
244 4 1.2613247525353900e+01 1.4860197140173593e+01 1.2029793449402044e+01 0 0 0
245 5 1.6184265773669754e+01 1.5137340470959421e+01 1.0454002451333070e+01 0 0 0
246 6 1.6206928983021779e+01 1.5084272444758687e+01 1.3571300371226974e+01 0 0 0
247 4 1.5200305002251843e+01 1.6609210313469600e+01 1.2048779662171960e+01 0 0 0
248 5 1.8757238215962015e+01 1.6871645978289198e+01 1.0442517585208634e+01 0 0 0
249 6 1.8794878065855059e+01 1.6834138651738439e+01 1.3560518017247242e+01 0 0 0
250 4 1.7778680568732270e+01 1.8351894782092806e+01 1.2032882217797187e+01 0 0 0
251 5 2.1342413614447249e+01 1.8584795753553223e+01 1.0415505968622321e+01 0 0 0
252 6 2.1372017462723509e+01 1.8565985035863228e+01 1.3534608976010215e+01 0 0 0
253 4 2.0356813070023765e+01 2.0074907217926235e+01 1.1994260190499245e+01 0 0 0
254 5 2.3941350664426977e+01 2.0278468409487925e+01 1.0398260132905506e+01 0 0 0
255 6 2.3941257140136258e+01 2.0276791111484677e+01 1.3517790237591379e+01 0 0 0
256 4 1.0771202832717549e+01 7.0231392989687724e-01 1.1960054080178104e+01 0 1 0
257 5 1.4373852594816523e+01 8.9166052712840504e-01 1.0407371294840683e+01 0 1 0
258 6 1.4340116496785587e+01 9.0479933549043823e-01 1.3526143848195938e+01 0 1 0
259 4 1.3357708649068742e+01 2.4013129222852063e+00 1.1951255993790133e+01 0 1 0
260 5 1.6962094420095909e+01 2.5953913785716907e+00 1.0437796735430961e+01 0 1 0
261 6 1.6912376929781185e+01 2.6224594990525851e+00 1.3555312301812542e+01 0 1 0
262 4 2.4105046061195328e+01 3.1099090543411259e+00 1.2089303138779924e+01 -1 0 0
263 5 3.3402914185685315e+00 3.3563500343788362e+00 1.0501512069207319e+01 0 0 0
264 6 3.3844707554518565e+00 3.3895078856633654e+00 1.3617409059118188e+01 0 0 0
265 4 2.6689324803245729e+01 4.8592452684539298e+00 1.2048779660482586e+01 -1 0 0
266 5 5.9349966399941865e+00 5.0889332794097237e+00 1.0437796737889514e+01 0 0 0
267 6 5.9832970651294213e+00 5.1184558296872416e+00 1.3555312304220211e+01 0 0 0
268 4 4.9529934140667295e+00 6.5909057157841122e+00 1.1991791626946384e+01 0 0 0
269 5 8.5546201877877674e+00 6.8105926837850559e+00 1.0388661169839221e+01 0 0 0
270 6 8.5836590203314298e+00 6.8218189655809196e+00 1.3507648188066138e+01 0 0 0
271 4 7.5691126529392214e+00 8.3074621502233121e+00 1.1951255995060736e+01 0 0 0
272 5 1.1179684041488434e+01 8.5317704260177649e+00 1.0374276838195509e+01 0 0 0
273 6 1.1184380260108927e+01 8.5190450934953876e+00 1.3493635638624740e+01 0 0 0
274 4 1.0190118300041885e+01 1.0022909359505507e+01 1.1945828274907335e+01 0 0 0
275 5 1.3789205174967655e+01 1.0262418894345789e+01 1.0388661169609534e+01 0 0 0
276 6 1.3784408004251146e+01 1.0231657386292559e+01 1.3507648187827698e+01 0 0 0
277 4 1.2802411212944680e+01 1.1750517104339607e+01 1.1968064476992451e+01 0 0 0
278 5 1.6377611280030223e+01 1.2002291391459153e+01 1.0407371296379582e+01 0 0 0
279 6 1.6383100788003770e+01 1.1966505667596818e+01 1.3526143849685438e+01 0 0 0
280 4 1.5399764067973173e+01 1.3491362657487624e+01 1.1991791627717459e+01 0 0 0
281 5 1.8957371261682834e+01 1.3740767496742198e+01 1.0409622345889160e+01 0 0 0
282 6 1.8978121117704710e+01 1.3710993057507471e+01 1.3528759668807256e+01 0 0 0
283 4 1.7985616875695797e+01 1.5233094814240085e+01 1.1994426666272421e+01 0 0 0
284 5 2.1545963097627915e+01 1.5464570785907494e+01 1.0397007452925491e+01 0 0 0
285 6 2.1566160157638219e+01 1.5444685322562956e+01 1.3516882492405580e+01 0 0 0
286 4 2.0567707693598585e+01 1.6959818759945602e+01 1.1976277891925928e+01 0 0 0
287 5 2.4149514771830628e+01 1.7169287546131823e+01 1.0390539024598706e+01 0 0 0
288 6 2.4146539086057174e+01 1.7158251701618852e+01 1.3510667175423253e+01 0 0 0
289 4 2.3151602653621762e+01 1.8666300319361429e+01 1.1958280100348796e+01 0 0 0
290 5 2.6757905652463293e+01 1.8864517391740506e+01 1.0409622344428083e+01 0 0 0
291 6 2.6721745305372661e+01 1.8861434708881369e+01 1.3528759667406154e+01 0 0 0
292 4 2.5737295996169653e+01 2.0363397799424263e+01 1.1962044619418116e+01 0 0 0
293 5 2.9353926072671804e+01 2.0567810703439918e+01 1.0454002448489822e+01 0 0 0
294 6 2.9296636209802582e+01 2.0574717801743343e+01 1.3571300368471501e+01 0 0 0
295 4 1.6152349746611851e+01 9.9396542048103775e-01 1.1991791625114026e+01 0 1 0
296 5 1.9759908134100019e+01 1.2146023643248181e+00 1.0501512067089784e+01 0 1 0
297 6 1.9709102924036202e+01 1.2362838682325263e+00 1.3617409057036431e+01 0 1 0
298 4 5.1608062472198872e+00 3.4932943609137279e+00 1.2029793449108448e+01 0 0 0
299 5 8.7439217409747041e+00 3.7112820970006228e+00 1.0407076561171797e+01 0 0 0
300 6 8.7826581673657653e+00 3.7273081465315316e+00 1.3525563862949758e+01 0 0 0
301 4 7.7592863137937265e+00 5.2119549395038520e+00 1.1968064476915666e+01 0 0 0
302 5 1.1358166291843720e+01 5.4160053271612236e+00 1.0374276837852067e+01 0 0 0
303 6 1.1366838644535720e+01 5.4264350373437100e+00 1.3493635638273172e+01 0 0 0
304 4 1.0368475491961096e+01 6.9208285000720604e+00 1.1933258520777715e+01 0 0 0
305 5 1.3967256896023324e+01 7.1284580417182113e+00 1.0374276837310333e+01 0 0 0
306 6 1.3953888326667155e+01 7.1307536628515278e+00 1.3493635637748479e+01 0 0 0
307 4 1.2977744538430734e+01 8.6364562149002086e+00 1.1933258520491989e+01 0 0 0
308 5 1.6559517315417718e+01 8.8563716787591655e+00 1.0390197681974053e+01 0 0 0
309 6 1.6545907352095956e+01 8.8551239757838882e+00 1.3509457844887123e+01 0 0 0
310 4 1.5578285927154578e+01 1.0367458722216591e+01 1.1951255994609845e+01 0 0 0
311 5 1.9141131253348394e+01 1.0594583817478645e+01 1.0398260132376201e+01 0 0 0
312 6 1.9142630598911293e+01 1.0595341469975176e+01 1.3517790237086965e+01 0 0 0
313 4 1.8169607579180237e+01 1.2107453402510327e+01 1.1962044620293852e+01 0 0 0
314 5 2.1729678813200287e+01 1.2329449655397891e+01 1.0390539024302960e+01 0 0 0
315 6 2.1740723978164478e+01 1.2332390556406338e+01 1.3510667175143210e+01 0 0 0
316 4 2.0757862933098270e+01 1.3840198281920236e+01 1.1955707665467457e+01 0 0 0
317 5 2.4336737647103273e+01 1.4050822130259075e+01 1.0382454643364481e+01 0 0 0
318 6 2.4336737647409844e+01 1.4050822129732719e+01 1.3502985364745399e+01 0 0 0
319 4 2.3349108127315450e+01 1.5554692522915953e+01 1.1946078022840853e+01 0 0 0
320 5 2.6956467173304588e+01 1.5760829458191607e+01 1.0397007451793227e+01 0 0 0
321 6 2.6929147328021404e+01 1.5753281022995239e+01 1.3516882491333254e+01 0 0 0
322 4 2.5943769402270547e+01 1.7255530473021750e+01 1.1955707664658078e+01 0 0 0
323 5 2.9569392477749219e+01 1.7472398452697089e+01 1.0442517582899232e+01 0 0 0
324 6 2.9518090255627069e+01 1.7458555050402623e+01 1.3560518015034281e+01 0 0 0
325 4 2.8536176214335036e+01 1.8959917717309668e+01 1.1994426663915229e+01 0 0 0
326 5 3.2158406202717721e+01 1.9198153968877275e+01 1.0502736714246087e+01 0 0 0
327 6 3.2106224354088994e+01 1.9186471342589890e+01 1.3618773832882997e+01 0 0 0
328 4 3.1120583133732328e+01 2.0684010806267132e+01 1.2048779659195930e+01 0 0 0
329 4 2.1529107665719234e+01 1.3538489232674602e+00 1.2088873641530306e+01 0 1 0
330 4 1.0561584964308500e+01 3.8134467895932458e+00 1.1945828274541812e+01 0 0 0
331 5 1.4161281866597779e+01 4.0032222162914621e+00 1.0388661168258290e+01 0 0 0
332 6 1.4137040206274417e+01 4.0227574416472720e+00 1.3507648186506716e+01 0 0 0
333 4 1.3158887198876245e+01 5.5189490802026668e+00 1.1933258519870133e+01 0 0 0
334 5 1.6750712793911337e+01 5.7168174654182762e+00 1.0407076558904112e+01 0 0 0
335 6 1.6717465615704931e+01 5.7423511689485345e+00 1.3525563860753250e+01 0 0 0
336 4 1.5753403964804839e+01 7.2398776457658061e+00 1.1945828273304667e+01 0 0 0
337 5 1.9327420574422064e+01 7.4495183943968577e+00 1.0421402478254139e+01 0 0 0
338 6 1.9308481795705976e+01 7.4817019943163503e+00 1.3539929170628628e+01 0 0 0
339 4 1.8342915123008382e+01 8.9769784760823157e+00 1.1960054078878585e+01 0 0 0
340 5 2.1907363323160730e+01 9.1906746379935100e+00 1.0415505966478520e+01 0 0 0
341 6 2.1908851958475168e+01 9.2257176799225569e+00 1.3534608973964330e+01 0 0 0
342 4 2.0932183780212743e+01 1.0716726022832789e+01 1.1958280099286927e+01 0 0 0
343 5 2.4507782670248574e+01 1.0927066146100280e+01 1.0397007451600409e+01 0 0 0
344 6 2.4514905456158516e+01 1.0954500043474065e+01 1.3516882491156970e+01 0 0 0
345 4 2.3528162442427622e+01 1.2443574679686867e+01 1.1946078022265320e+01 0 0 0
346 5 2.7131019356175834e+01 1.2653729188894308e+01 1.0390539024069449e+01 0 0 0
347 6 2.7122949877780684e+01 1.2661824131095344e+01 1.3510667174943228e+01 0 0 0
348 4 2.6132942371646912e+01 1.4154199187886103e+01 1.1946078022256280e+01 0 0 0
349 4 2.8740517606631698e+01 1.5860399502587256e+01 1.1976277890229541e+01 0 0 0
350 4 3.1340604369969739e+01 1.7579729832416007e+01 1.2032882215463669e+01 0 0 0
351 4 1.5943409702108076e+01 4.1137617504857760e+00 1.1968064474628605e+01 0 0 0
352 5 1.9533638338638593e+01 4.3213185453336598e+00 1.0465980682557266e+01 0 0 0
353 6 1.9495548744603706e+01 4.3627110988565914e+00 1.3582844862755875e+01 0 0 0
354 4 1.8526112530493791e+01 5.8469176253265545e+00 1.1990157319818849e+01 0 0 0
355 5 2.2100660017831814e+01 6.0632972771025582e+00 1.0468458787535274e+01 0 0 0
356 6 2.2091227744410702e+01 6.1156503811633121e+00 1.3585569174558271e+01 0 0 0
357 4 2.1109689211457546e+01 7.5920637957557782e+00 1.1994260187715392e+01 0 0 0
358 5 2.4683582247136311e+01 7.8084219574999656e+00 1.0442517582758809e+01 0 0 0
359 6 2.4697244619048551e+01 7.8597726863718425e+00 1.3560518014912349e+01 0 0 0
360 4 2.3701987640475927e+01 9.3322481272565643e+00 1.1976277889818997e+01 0 0 0
361 4 2.6308580605746386e+01 1.1056737635326501e+01 1.1955707664522905e+01 0 0 0
362 4 1.8731053455441117e+01 2.7227422918269921e+00 1.2029793446326437e+01 0 0 0
363 5 2.2319488853651315e+01 2.9554712172184585e+00 1.0522636615005338e+01 0 0 0
364 6 2.2299724443662353e+01 2.9948887590499687e+00 1.3638194097763071e+01 0 0 0
365 4 2.1308009669415483e+01 4.4701498597921550e+00 1.2048450640234645e+01 0 0 0
366 4 2.3890928000880347e+01 6.2208417740179716e+00 1.2032882214940814e+01 0 0 0
