LAMMPS data file via write_data, version 30 Mar 2018, timestep = 915

366 atoms
6 atom types

0.0000000000000000e+00 2.4336738377000000e+01 xlo xhi
0.0000000000000000e+00 2.1076233353799999e+01 ylo yhi
0.0000000000000000e+00 1.0000000000000000e+02 zlo zhi
1.2168369753100000e+01 0.0000000000000000e+00 0.0000000000000000e+00 xy xz yz

Masses

1 95.94
2 32.066
3 32.066
4 95.94
5 32.066
6 32.066

Atoms # atomic

1 2 2.2528979509229767e+01 1.3468100920533929e-01 4.0182173339059757e+00 -1 1 0
2 3 2.2554394860590858e+01 1.3660855201293901e-01 7.1333541921158652e+00 -1 1 0
3 2 1.0205151008598148e+00 1.4982246405022626e+00 4.0182173316316607e+00 0 1 0
4 3 1.0094767267832689e+00 1.4752505319900444e+00 7.1333541898541712e+00 0 1 0
5 2 3.1663919068671042e+01 1.6713523112533508e+01 4.0962021874092427e+00 -1 0 0
6 3 3.1702006608831667e+01 1.6754915457713537e+01 7.2130663760832396e+00 -1 0 0
7 2 3.4468094218063662e+01 1.8081345330921348e+01 4.0408543081211166e+00 -1 0 0
8 3 3.4487858012113250e+01 1.8120763052858152e+01 7.1564117547442043e+00 -1 0 0
9 1 3.3697477150701516e+01 1.9722385368241373e+01 5.5901745149664928e+00 -1 0 0
10 2 1.2955611245744810e+01 1.9443329138691379e+01 4.0182173363890472e+00 0 0 0
11 3 1.2941234270050581e+01 1.9464375712559491e+01 7.1333541946697183e+00 0 0 0
12 1 2.4336737614707040e+01 4.9516953928612167e-07 5.5659936076524001e+00 -1 1 0
13 2 1.5780525086855448e+01 2.0809573035901579e+01 4.0408543030588495e+00 0 0 0
14 3 1.5736506443807549e+01 2.0806980131582446e+01 7.1564117500927820e+00 0 0 0
15 1 2.8091051461859040e+00 1.3543039726806956e+00 5.5897454681631835e+00 0 1 0
16 2 6.4190630544048215e+00 1.1131576651695538e+00 4.0934801134421761e+00 0 1 0
17 3 6.3690072164348752e+00 1.0951480353096117e+00 7.2105904670257210e+00 0 1 0
18 2 9.2036485294802226e+00 2.5102498136905376e+00 4.1444421812374603e+00 0 1 0
19 3 9.1740438500753427e+00 2.4914366567586819e+00 7.2635451581036543e+00 0 1 0
20 2 2.8714278231065357e+01 1.2221109165516072e+01 4.1695872351618020e+00 -1 0 0
21 3 2.8727885017210507e+01 1.2219862824946095e+01 7.2888473829435423e+00 -1 0 0
22 2 3.1476852655807114e+01 1.3594531326888667e+01 4.1391185144571248e+00 -1 0 0
23 3 3.1495788474431421e+01 1.3626716121478232e+01 7.2576452113370813e+00 -1 0 0
24 1 3.0694481805856430e+01 1.5229316384739548e+01 5.6888889489327852e+00 -1 0 0
25 2 9.9228593628294703e+00 1.4960583017915477e+01 4.0934801252050423e+00 0 0 0
26 3 9.9322904778304881e+00 1.5012937464112841e+01 7.2105904779856580e+00 0 0 0
27 1 3.3476379029411575e+01 1.6606084284044474e+01 5.6305975935482486e+00 -1 0 0
28 2 1.2731227752877594e+01 1.6321808881826605e+01 4.0602752137789935e+00 0 0 0
29 3 1.2715255043818598e+01 1.6372842074980959e+01 7.1763122660252181e+00 0 0 0
30 1 1.1936677204960443e+01 1.7966325099261610e+01 5.5897454762386038e+00 0 0 0
31 2 1.5552838492833622e+01 1.7686726137911542e+01 4.0616387244456806e+00 0 0 0
32 3 1.5508660735037658e+01 1.7719883965386327e+01 7.1775356828380055e+00 0 0 0
33 1 1.4744651228107918e+01 1.9321679064617200e+01 5.5901745158097809e+00 0 0 0
34 2 1.8367181405888484e+01 1.9064997296430406e+01 4.0962021852231096e+00 0 0 0
35 3 1.8312290814051483e+01 1.9077285911822948e+01 7.2130663746923700e+00 0 0 0
36 1 1.7553996229062367e+01 2.0688353091545139e+01 5.6305975868836500e+00 0 0 0
37 2 2.1161840773296934e+01 2.0462488997924559e+01 4.1391185071774492e+00 0 0 0
38 3 2.1124500012195266e+01 2.0462795508428428e+01 7.2576452053821701e+00 0 0 0
39 1 8.1884436424031914e+00 1.0013263513303006e+00 5.6847893030495120e+00 0 1 0
40 2 1.1772887826087263e+01 7.9944456775150463e-01 4.1612590553724811e+00 0 1 0
41 3 1.1772981492157495e+01 7.9776345572921781e-01 7.2807891333998107e+00 0 1 0
42 1 1.0983233396377619e+01 2.4099334392278995e+00 5.7207712903002692e+00 0 1 0
43 2 1.4553376009943587e+01 2.2148007160177134e+00 4.1502910583861752e+00 0 1 0
44 3 1.4589536947549046e+01 2.2117147491773097e+00 7.2694283179910837e+00 0 1 0
45 2 2.5777802803990170e+01 7.7409141282685052e+00 4.1237335543325582e+00 -1 0 0
46 3 2.5776384549521989e+01 7.6843258373084966e+00 7.2412491080886294e+00 -1 0 0
47 2 2.8551471601112098e+01 9.1097270085659368e+00 4.1529029936336173e+00 -1 0 0
48 3 2.8545978990225606e+01 9.0739433567863248e+00 7.2716755026160884e+00 -1 0 0
49 1 2.7746655110941266e+01 1.0708775078317160e+01 5.7277888461554562e+00 -1 0 0
50 2 6.9742633393021229e+00 1.0480891377459969e+01 4.1612590615914709e+00 0 0 0
51 3 6.9727606161585589e+00 1.0481650812952516e+01 7.2807891381195127e+00 0 0 0
52 1 3.0511284491494461e+01 1.2099255349423700e+01 5.7189932089193132e+00 -1 0 0
53 2 9.7404838744457649e+00 1.1850515257017564e+01 4.1444421934114333e+00 0 0 0
54 3 9.7389935372043954e+00 1.1885560237529532e+01 7.2635451692684132e+00 0 0 0
55 1 8.9413202437351114e+00 1.3484170178513416e+01 5.6847893139163945e+00 0 0 0
56 2 1.2528875296513082e+01 1.3216460271331153e+01 4.1185328308306604e+00 0 0 0
57 3 1.2515213681809596e+01 1.3267813057821423e+01 7.2365331889539846e+00 0 0 0
58 1 1.1722559053150624e+01 1.4855392280742834e+01 5.6461676039395989e+00 0 0 0
59 2 1.5338277709579792e+01 1.4582757064997342e+01 4.1077481581228659e+00 0 0 0
60 3 1.5303653518149119e+01 1.4628919399409426e+01 7.2250460111568273e+00 0 0 0
61 1 1.4520956012623898e+01 1.6216988729167518e+01 5.6302687355526002e+00 0 0 0
62 2 1.8151664339395538e+01 1.5957778151114470e+01 4.1237335632052838e+00 0 0 0
63 3 1.8103366574743809e+01 1.5987300548464818e+01 7.2412491180194829e+00 0 0 0
64 1 1.7329174865707618e+01 1.7582939636563477e+01 5.6492532940795499e+00 0 0 0
65 2 2.0951026188056396e+01 1.7348926981879050e+01 4.1534806676967442e+00 0 0 0
66 3 2.0912291430824784e+01 1.7364950991860464e+01 7.2719679782597373e+00 0 0 0
67 1 2.0137260771533342e+01 1.8967543443947520e+01 5.6888889460563989e+00 0 0 0
68 2 2.3732546424873092e+01 1.8756740518664486e+01 4.1695872320758989e+00 0 0 0
69 3 2.3726822392650035e+01 1.8769147516077247e+01 7.2888473812048993e+00 0 0 0
70 1 2.2939571839904303e+01 2.0373920506708750e+01 5.7189932034947226e+00 0 0 0
71 2 2.6508485768628923e+01 2.0171436995966733e+01 4.1529029921699765e+00 0 0 0
72 3 2.6542221621761769e+01 2.0184572080935812e+01 7.2716755025217221e+00 0 0 0
73 1 1.3568926840660414e+01 7.1283599042168888e-01 5.7170043700146911e+00 0 1 0
74 2 1.7128267267975886e+01 5.0151728243426374e-01 4.1077481453360303e+00 0 1 0
75 3 1.7185557113195703e+01 5.0842154493874825e-01 7.2250459986100797e+00 0 1 0
76 1 1.6367807295114119e+01 2.1163160307660500e+00 5.6846234616063214e+00 0 1 0
77 2 1.9937855381612273e+01 1.8897628713417611e+00 4.0602752049512079e+00 0 1 0
78 3 1.9990037773633922e+01 1.8780790447687257e+00 7.1763122573456686e+00 0 1 0
79 2 2.5579902761703817e+01 4.6257909248771396e+00 4.0616387154340323e+00 -1 0 0
80 3 2.5573276128449056e+01 4.5709529523008570e+00 7.1775356732363518e+00 -1 0 0
81 2 4.0385608869996723e+00 5.9919604445706085e+00 4.1077481426054918e+00 0 0 0
82 3 4.0158952327639810e+00 5.9388938484028886e+00 7.2250459950235797e+00 0 0 0
83 1 2.7568133171709633e+01 7.5848710527260987e+00 5.6872552762536897e+00 -1 0 0
84 2 6.8097535794008994e+00 7.3652399740773129e+00 4.1502910585247443e+00 0 0 0
85 3 6.7890005849384529e+00 7.3354666612626565e+00 7.2694283169993588e+00 0 0 0
86 1 6.0012385366647045e+00 8.9687802928132587e+00 5.7170043721335277e+00 0 0 0
87 2 9.5723559873152873e+00 8.7438425537021232e+00 4.1683857294413009e+00 0 0 0
88 3 9.5613088189451290e+00 8.7467846739627220e+00 7.2885138510935352e+00 0 0 0
89 1 8.7638148456889464e+00 1.0359507780600465e+01 5.7207712983077377e+00 0 0 0
90 2 1.2346536285675654e+01 1.0121732898487384e+01 4.1621706417106878e+00 0 0 0
91 3 1.2339413867143897e+01 1.0149168581601877e+01 7.2820456421826902e+00 0 0 0
92 1 1.1533618690711608e+01 1.1743985786521504e+01 5.7027741275206711e+00 0 0 0
93 2 1.5141976282064025e+01 1.1496194103149717e+01 4.1502910728913083e+00 0 0 0
94 3 1.5126568335425056e+01 1.1529053375903453e+01 7.2694283319804338e+00 0 0 0
95 1 1.4320050924823276e+01 1.3116780037471607e+01 5.6846234747732707e+00 0 0 0
96 2 1.7950256627443355e+01 1.2871304143512992e+01 4.1529030060842320e+00 0 0 0
97 3 1.7922013386034756e+01 1.2893952710550412e+01 7.2716755161060727e+00 0 0 0
98 1 1.7121361828388800e+01 1.4485328151479310e+01 5.6872552898237698e+00 0 0 0
99 2 2.0752026440919181e+01 1.4254414775032593e+01 4.1713953569428606e+00 0 0 0
100 3 2.0722990099305939e+01 1.4265641338968672e+01 7.2903823517089350e+00 0 0 0
101 1 1.9927655034558438e+01 1.5864279053236503e+01 5.7109798155762936e+00 0 0 0
102 2 2.3535207242074669e+01 1.5649799701958973e+01 4.1854067439636680e+00 0 0 0
103 3 2.3526535526232404e+01 1.5660228101589155e+01 7.3047655129304943e+00 0 0 0
104 1 2.2729953911627540e+01 1.7262787418750655e+01 5.7332153215135975e+00 0 0 0
105 2 2.6305409757738090e+01 1.7053477915122485e+01 4.1713953497116867e+00 0 0 0
106 3 2.6329650415526480e+01 1.7073010849806408e+01 7.2903823443715794e+00 0 0 0
107 1 2.5526077725741132e+01 1.8674921436960190e+01 5.7277888444498517e+00 0 0 0
108 2 2.9080746849569863e+01 1.8453775867656230e+01 4.1237335553501815e+00 0 0 0
109 3 2.9130462871180406e+01 1.8480841765813341e+01 7.2412491098902452e+00 0 0 0
110 1 2.8320718979126916e+01 2.0082268989912837e+01 5.6872552774778020e+00 0 0 0
111 2 3.1877472734601881e+01 1.9839951081257272e+01 4.0616387192502090e+00 0 0 0
112 3 3.1928277127068334e+01 1.9861631232365582e+01 7.1775356774479091e+00 0 0 0
113 1 1.8952214269635981e+01 3.9222284775798155e-01 5.6302687262901241e+00 0 1 0
114 1 2.1759323493419245e+01 1.7556057671936816e+00 5.5897454706804712e+00 0 1 0
115 1 2.4568085595596678e+01 3.1084037604553481e+00 5.5901745110300833e+00 -1 0 0
116 2 3.8360227259192130e+00 2.8646630369276163e+00 4.0602752006905369e+00 0 0 0
117 3 3.7998130429635424e+00 2.8253136740369817e+00 7.1763122530238226e+00 0 0 0
118 1 3.0319355644004302e+00 4.4670232622073653e+00 5.6302687221083971e+00 0 0 0
119 2 6.6265097805918032e+00 4.2420950469192551e+00 4.1185328145134665e+00 0 0 0
120 3 6.5888677690937190e+00 4.2045873507250855e+00 7.2365331728043820e+00 0 0 0
121 1 5.8172476310398915e+00 5.8431387690378704e+00 5.6846234579173158e+00 0 0 0
122 2 9.3977918516578072e+00 5.6315485912434298e+00 4.1621706305485322e+00 0 0 0
123 3 9.3775930556691538e+00 5.6116625518773935e+00 7.2820456311776738e+00 0 0 0
124 1 8.5894938589333734e+00 7.2360353932770867e+00 5.7233449389469007e+00 0 0 0
125 2 1.2168368625998117e+01 7.0254115977948457e+00 4.1760688748899675e+00 0 0 0
126 3 1.2168368623482621e+01 7.0254115926036338e+00 7.2965995808309341e+00 0 0 0
127 1 1.1359793454046255e+01 8.6326590934742509e+00 5.7329758843466134e+00 0 0 0
128 2 1.4954579891421117e+01 8.4144090197128829e+00 4.1683857347076394e+00 0 0 0
129 3 1.4962651427678388e+01 8.4225050779428798e+00 7.2885138569130286e+00 0 0 0
130 1 1.4140211630792106e+01 1.0019496135967964e+01 5.7233449504553731e+00 0 0 0
131 2 1.7757954705275779e+01 9.7958988488445478e+00 4.1612590696917611e+00 0 0 0
132 3 1.7759363760556720e+01 9.7968205204088381e+00 7.2807891470996617e+00 0 0 0
133 1 1.6934940474926265e+01 1.1394618555009306e+01 5.7170043854606956e+00 0 0 0
134 2 2.0563389340668152e+01 1.1174618465190491e+01 4.1695872419056235e+00 0 0 0
135 3 2.0555506589631019e+01 1.1163457810604520e+01 7.2888473904262439e+00 0 0 0
136 1 1.9737481143842615e+01 1.2768771680873892e+01 5.7277888557985399e+00 0 0 0
137 2 2.3352748645838997e+01 1.2557188202800265e+01 4.1854067460235669e+00 0 0 0
138 3 2.3348053252431995e+01 1.2544464078129140e+01 7.3047655145930186e+00 0 0 0
139 1 2.2536844288357415e+01 1.4155405487333189e+01 5.7457837109419048e+00 0 0 0
140 2 2.6122258107165990e+01 1.3945480246218708e+01 4.1854067433425381e+00 0 0 0
141 3 2.6135625222135836e+01 1.3947775977050616e+01 7.3047655117635353e+00 0 0 0
142 1 2.5327256209796818e+01 1.5557285006075883e+01 5.7457837072184157e+00 0 0 0
143 2 2.8885836107443112e+01 1.5333883047253712e+01 4.1534806670344420e+00 0 0 0
144 3 2.8919080678838064e+01 1.5359416331437322e+01 7.2719679766923546e+00 0 0 0
145 1 2.8111778839727954e+01 1.6962472401336850e+01 5.7109798097422138e+00 0 0 0
146 1 3.0899422733385510e+01 1.8353491949701812e+01 5.6492532901767580e+00 0 0 0
147 1 5.6103111096560774e+00 2.7243386957017082e+00 5.6461675892900116e+00 0 0 0
148 1 8.3993383958138921e+00 4.1164148605459649e+00 5.7027741133817962e+00 0 0 0
149 2 1.1978169996930008e+01 3.9179832200318359e+00 4.1683857240836977e+00 0 0 0
150 3 1.1981145623083904e+01 3.9069450291244143e+00 7.2885138466151007e+00 0 0 0
151 1 1.1180739009765421e+01 5.5215412093266689e+00 5.7329758785668989e+00 0 0 0
152 2 1.4760777737972724e+01 5.3229533034684939e+00 4.1621706349696588e+00 0 0 0
153 3 1.4788098946328757e+01 5.3154036473677007e+00 7.2820456359545958e+00 0 0 0
154 1 1.3964573392549326e+01 6.9220345305203743e+00 5.7329758842284031e+00 0 0 0
155 2 1.7560973467120718e+01 6.7154697223610995e+00 4.1444421917437335e+00 0 0 0
156 3 1.7592068480228527e+01 6.6992378916967272e+00 7.2635451682397347e+00 0 0 0
157 1 1.6758057611922737e+01 8.3067936161616256e+00 5.7207713034410617e+00 0 0 0
158 2 2.0371520567258280e+01 8.0954478226385227e+00 4.1391185158809654e+00 0 0 0
159 3 2.0389925510312320e+01 8.0629565175943618e+00 7.2576452132180185e+00 0 0 0
160 1 1.9559357649995619e+01 9.6792923377867002e+00 5.7189932157428842e+00 0 0 0
161 2 2.3173351698709787e+01 9.4696581196859686e+00 4.1534806687699932e+00 0 0 0
162 3 2.3178841888349211e+01 9.4281008301856595e+00 7.2719679783455264e+00 0 0 0
163 1 2.2358486940158514e+01 1.1053324506724257e+01 5.7332153263783496e+00 0 0 0
164 2 2.5952777796390841e+01 1.0844575459729047e+01 4.1713953511144553e+00 0 0 0
165 3 2.5957573484727437e+01 1.0813815965970949e+01 7.2903823449542191e+00 0 0 0
166 1 2.5146113482046921e+01 1.2439777705372165e+01 5.7457837084216035e+00 0 0 0
167 1 2.7921773128356193e+01 1.3836356272008514e+01 5.7332153218282347e+00 0 0 0
168 1 1.3775400365218450e+01 3.8207033054126009e+00 5.7233449391946820e+00 0 0 0
169 2 1.7349720791124223e+01 3.6176794738764899e+00 4.1185328202912830e+00 0 0 0
170 3 1.7401024414288340e+01 3.6038343791059524e+00 7.2365331788797658e+00 0 0 0
171 1 1.6572148766752797e+01 5.2158341884304926e+00 5.7027741214858159e+00 0 0 0
172 2 2.0163183446441479e+01 5.0024941084092722e+00 4.0934801194821437e+00 0 0 0
173 3 2.0203808168805775e+01 4.9681492927320434e+00 7.2105904725199830e+00 0 0 0
174 1 1.9375341964403667e+01 6.5907383083533526e+00 5.6847893127668359e+00 0 0 0
175 2 2.2979113516815993e+01 6.3739477367545891e+00 4.0962021847594912e+00 0 0 0
176 3 2.2995916570377613e+01 6.3202667809151718e+00 7.2130663732690365e+00 0 0 0
177 1 2.2178471401511338e+01 7.9556083663530117e+00 5.6888889498224708e+00 0 0 0
178 1 2.4970780104847627e+01 9.3257167421743823e+00 5.7109798105874274e+00 0 0 0
179 1 1.9172235685660496e+01 3.4965038614840322e+00 5.6461675956755846e+00 0 0 0
180 2 2.2761594682894749e+01 3.2615497763618109e+00 4.0408543027540986e+00 0 0 0
181 3 2.2785849533166804e+01 3.2247249652978507e+00 7.1564117493231407e+00 0 0 0
182 1 2.1979838718191257e+01 4.8580308177219624e+00 5.6305975892831936e+00 0 0 0
183 1 2.4781616377740246e+01 6.2160366082281184e+00 5.6492532876818631e+00 0 0 0
184 5 3.4722764643716104e+01 2.0939625764352694e+01 1.0545693807023175e+01 -1 0 0
185 6 3.4697349292435142e+01 2.0941553305615965e+01 1.3660830665271249e+01 -1 0 0
186 5 2.5109603020171786e+01 1.6118586054237356e+00 1.0545693808280809e+01 -1 1 0
187 6 2.5123979994642990e+01 1.6329051722814945e+00 1.3660830666467117e+01 -1 1 0
188 5 2.9760437902312894e+01 1.4376996421546009e+01 1.0415502837497773e+01 -1 0 0
189 6 2.9729342891767146e+01 1.4360764598094116e+01 1.3534605814486630e+01 -1 0 0
190 5 3.2372177684653806e+01 1.6108085023263921e+01 1.0468457527305887e+01 -1 0 0
191 6 3.2331552967566466e+01 1.6073740212821885e+01 1.3585567881035878e+01 -1 0 0
192 5 1.0617480769286269e+01 1.7851509352547588e+01 1.0522636245407613e+01 0 0 0
193 6 1.0593225923680725e+01 1.7814684541769303e+01 1.3638193692511781e+01 0 0 0
194 4 3.3927693181703390e+01 1.9320628577162903e+01 1.2089302527220012e+01 -1 0 0
195 5 1.3177846438045345e+01 1.9600983787367120e+01 1.0545693803953888e+01 0 0 0
196 6 1.3188884814439984e+01 1.9578009672558760e+01 1.3660830662232563e+01 0 0 0
197 4 2.4336737646252676e+01 4.9368816391273526e-07 1.2113054390982677e+01 -1 1 0
198 5 3.5681367446500500e+00 2.6925418926442157e-01 1.0522636247102682e+01 0 1 0
199 6 3.6121553883909590e+00 2.6666127344518475e-01 1.3638193693663425e+01 0 1 0
200 4 2.5762816017233221e+00 1.7545552774427053e+00 1.2088873487015718e+01 0 1 0
201 5 6.1439212060153707e+00 1.9989484104145783e+00 1.0465981627178136e+01 0 1 0
202 6 6.1988117991228737e+00 2.0112370130091306e+00 1.3582845815731917e+01 0 1 0
203 5 2.7294937502090125e+01 9.5471809367008706e+00 1.0409619682540823e+01 -1 0 0
204 6 2.7310345446782559e+01 9.5800402122380817e+00 1.3528756942076622e+01 -1 0 0
205 5 2.9927733015207927e+01 1.1279413795227935e+01 1.0398258864812339e+01 -1 0 0
206 6 2.9926323964041991e+01 1.1280335471017292e+01 1.3517788942861062e+01 -1 0 0
207 4 2.8926426943269121e+01 1.2769440728782060e+01 1.1958276706909610e+01 -1 0 0
208 5 8.2215564789135005e+00 1.3013277800262145e+01 1.0421402790492495e+01 0 0 0
209 6 8.2031515440942417e+00 1.2980786499924205e+01 1.3539929488811614e+01 0 0 0
210 4 3.1543711388846187e+01 1.4485496039060589e+01 1.1994258691989208e+01 -1 0 0
211 5 1.0827547634718114e+01 1.4755967537807262e+01 1.0465981620641994e+01 0 0 0
212 6 1.0810744589472659e+01 1.4702286584444140e+01 1.3582845810219228e+01 0 0 0
213 4 9.8114698611439977e+00 1.6218203529393882e+01 1.2048450407909993e+01 0 0 0
214 5 1.3404907291560244e+01 1.6505281366622768e+01 1.0501512314282746e+01 0 0 0
215 6 1.3411533929923291e+01 1.6450443391543857e+01 1.3617409272703906e+01 0 0 0
216 4 1.2399716835553413e+01 1.7967830584532024e+01 1.2088873481156108e+01 0 0 0
217 5 1.5968182681252607e+01 1.8250920645146863e+01 1.0502735733976063e+01 0 0 0
218 6 1.6004392365567234e+01 1.8211571274307957e+01 1.3618772786175249e+01 0 0 0
219 4 1.4977474859666563e+01 1.9721930370302825e+01 1.2089302524038251e+01 0 0 0
220 5 1.8537376949305742e+01 1.9981086284336531e+01 1.0468457523980510e+01 0 0 0
221 6 1.8587432786673489e+01 1.9963076643558189e+01 1.3585567876658791e+01 0 0 0
222 4 5.3856265305154851e+00 3.8788125105806626e-01 1.2048450409090030e+01 0 1 0
223 5 8.9561303287684488e+00 6.1343881165004344e-01 1.0421402790443853e+01 0 1 0
224 6 8.9934710896336227e+00 6.1374531221283612e-01 1.3539929487234653e+01 0 1 0
225 4 7.9688911636230797e+00 2.1086909000806302e+00 1.1990159053781136e+01 0 1 0
226 5 1.1558452796280813e+01 2.3070868033721310e+00 1.0390200616902572e+01 0 1 0
227 6 1.1564176829623463e+01 2.3194937953100769e+00 1.3509460764671447e+01 0 1 0
228 5 2.4883623958652400e+01 4.7033922395963197e+00 1.0502735744071158e+01 -1 0 0
229 6 2.4899596663204310e+01 4.7544254292452379e+00 1.3618772796402190e+01 -1 0 0
230 5 2.7472022522704481e+01 6.4473149172897601e+00 1.0454002003895699e+01 -1 0 0
231 6 2.7506646712840571e+01 6.4934772475280385e+00 1.3571299857056552e+01 -1 0 0
232 4 2.6488420000745130e+01 7.9594543036568544e+00 1.1994424539970755e+01 -1 0 0
233 5 5.7536441001919680e+00 8.1822816085736569e+00 1.0407372498655159e+01 0 0 0
234 6 5.7818873458267044e+00 8.2049301733971127e+00 1.3526145008923255e+01 0 0 0
235 4 2.9103309641633309e+01 9.6816157901441091e+00 1.1962043630054454e+01 -1 0 0
236 5 8.3871373912212501e+00 9.9127765097904650e+00 1.0390200617330557e+01 0 0 0
237 6 8.3950201512334939e+00 9.9016158560587879e+00 1.3509460766476819e+01 0 0 0
238 4 7.3909885307572756e+00 1.1396942010652070e+01 1.1960054793980504e+01 0 0 0
239 5 1.1010472782025367e+01 1.1648133489482229e+01 1.0407080018297243e+01 0 0 0
240 6 1.1004982602308774e+01 1.1606576202617363e+01 1.3525567328939598e+01 0 0 0
241 4 1.0010102375655030e+01 1.3120625982587368e+01 1.1990159049677217e+01 0 0 0
242 5 1.3608015540246477e+01 1.3391908480411962e+01 1.0437798878609623e+01 0 0 0
243 6 1.3609433801281586e+01 1.3335320190942888e+01 1.3555314433473209e+01 0 0 0
244 4 1.2613247447833579e+01 1.4860197738532277e+01 1.2029794702114547e+01 0 0 0
245 5 1.6184264699368597e+01 1.5137340467508993e+01 1.0454001987304272e+01 0 0 0
246 6 1.6206930354944070e+01 1.5084273869510785e+01 1.3571299840318343e+01 0 0 0
247 4 1.5200305108304461e+01 1.6609211081525384e+01 1.2048779262968869e+01 0 0 0
248 5 1.8757237332615667e+01 1.6871646964255763e+01 1.0442514811360162e+01 0 0 0
249 6 1.8794879341557934e+01 1.6834139263268398e+01 1.3560515169406823e+01 0 0 0
250 4 1.7778680749064929e+01 1.8351895646080891e+01 1.2032880396972475e+01 0 0 0
251 5 2.1342413506494566e+01 1.8584797658244177e+01 1.0415502831279355e+01 0 0 0
252 6 2.1372018182281693e+01 1.8565984495949483e+01 1.3534605807067877e+01 0 0 0
253 4 2.0356813374467599e+01 2.0074907990476319e+01 1.1994258687713616e+01 0 0 0
254 5 2.3941351237996344e+01 2.0278470859739766e+01 1.0398258860892451e+01 0 0 0
255 6 2.3941257569391759e+01 2.0276789744425269e+01 1.3517788937433600e+01 0 0 0
256 4 1.0771202155317614e+01 7.0231383640906531e-01 1.1960054791428758e+01 0 1 0
257 5 1.4373851950194346e+01 8.9166223416803281e-01 1.0407372494368676e+01 0 1 0
258 6 1.4340116095662029e+01 9.0479731939026786e-01 1.3526145003438691e+01 0 1 0
259 4 1.3357708129226729e+01 2.4013129068035122e+00 1.1951259152033636e+01 0 1 0
260 5 1.6962093290856153e+01 2.5953925474133506e+00 1.0437798888047404e+01 0 1 0
261 6 1.6912377266982713e+01 2.6224584488070728e+00 1.3555314441883182e+01 0 1 0
262 4 2.4105046025382915e+01 3.1099092412075162e+00 1.2089302529561166e+01 -1 0 0
263 5 3.3402912006926080e+00 3.3563503545488724e+00 1.0501512325520546e+01 0 0 0
264 6 3.3844689580954568e+00 3.3895081719610718e+00 1.3617409283626930e+01 0 0 0
265 4 2.6689324926506902e+01 4.8592456122759558e+00 1.2048779276286991e+01 -1 0 0
266 5 5.9349971282066516e+00 5.0889337734105764e+00 1.0437798893227972e+01 0 0 0
267 6 5.9832948958770276e+00 5.1184561616015980e+00 1.3555314447638775e+01 0 0 0
268 4 4.9529924560869025e+00 6.5909061931068500e+00 1.1991792725062352e+01 0 0 0
269 5 8.5546207383980395e+00 6.8105929835609746e+00 1.0388665656666182e+01 0 0 0
270 6 8.5836570871052800e+00 6.8218195425647323e+00 1.3507652651254865e+01 0 0 0
271 4 7.5691118607205228e+00 8.3074626671200136e+00 1.1951259155935269e+01 0 0 0
272 5 1.1179683979606232e+01 8.5317702425784194e+00 1.0374282485473945e+01 0 0 0
273 6 1.1184379381769894e+01 8.5190461180791583e+00 1.3493641254452172e+01 0 0 0
274 4 1.0190117747226388e+01 1.0022909842456347e+01 1.1945832676268962e+01 0 0 0
275 5 1.3789204305217998e+01 1.0262418350927039e+01 1.0388665645377337e+01 0 0 0
276 6 1.3784408623067741e+01 1.0231658860476395e+01 1.3507652640173415e+01 0 0 0
277 4 1.2802411004967590e+01 1.1750517605154034e+01 1.1968068181031196e+01 0 0 0
278 5 1.6377609908006804e+01 1.2002290956100039e+01 1.0407372481611358e+01 0 0 0
279 6 1.6383102519569327e+01 1.1966507307765871e+01 1.3526144991629248e+01 0 0 0
280 4 1.5399764167236683e+01 1.3491363291067197e+01 1.1991792707689816e+01 0 0 0
281 5 1.8957369977234507e+01 1.3740767649010669e+01 1.0409619667194137e+01 0 0 0
282 6 1.8978122967337324e+01 1.3710994338186110e+01 1.3528756926236497e+01 0 0 0
283 4 1.7985617099270108e+01 1.5233095571746635e+01 1.1994424524588416e+01 0 0 0
284 5 2.1545962542645512e+01 1.5464571757710786e+01 1.0397002357441950e+01 0 0 0
285 6 2.1566161332302201e+01 1.5444685719509563e+01 1.3516877357864743e+01 0 0 0
286 4 2.0567707958087709e+01 1.6959819479248047e+01 1.1976273872741745e+01 0 0 0
287 5 2.4149515201392951e+01 1.7169289281471784e+01 1.0390534147222686e+01 0 0 0
288 6 2.4146539570093928e+01 1.7158251092382962e+01 1.3510662268898072e+01 0 0 0
289 4 2.3151603050215584e+01 1.8666300901618023e+01 1.1958276701032393e+01 0 0 0
290 5 2.6757906615905558e+01 1.8864519563086258e+01 1.0409619679173181e+01 0 0 0
291 6 2.6721745675581126e+01 1.8861433599447668e+01 1.3528756937763628e+01 0 0 0
292 4 2.5737296584352251e+01 2.0363398351969227e+01 1.1962043625189329e+01 0 0 0
293 5 2.9353926873202482e+01 2.0567812768305185e+01 1.0454001999894713e+01 0 0 0
294 6 2.9296637026522461e+01 2.0574717034692569e+01 1.3571299852445726e+01 0 0 0
295 4 1.6152349306706604e+01 9.9396535265188490e-01 1.1991792719580367e+01 0 1 0
296 5 1.9759907475343706e+01 1.2146030809806052e+00 1.0501512322566118e+01 0 1 0
297 6 1.9709103080422292e+01 1.2362832346554915e+00 1.3617409280430770e+01 0 1 0
298 4 5.1608053315974018e+00 3.4932947069927831e+00 1.2029794713286320e+01 0 0 0
299 5 8.7439219095960379e+00 3.7112833309083810e+00 1.0407080025519425e+01 0 0 0
300 6 8.7826566704014581e+00 3.7273073312749254e+00 1.3525567335076891e+01 0 0 0
301 4 7.7592855894856338e+00 5.2119552930618127e+00 1.1968068192664120e+01 0 0 0
302 5 1.1358166091166735e+01 5.4160062194752676e+00 1.0374282487975620e+01 0 0 0
303 6 1.1366837812320187e+01 5.4264346155660830e+00 1.3493641256371427e+01 0 0 0
304 4 1.0368474931166148e+01 6.9208288605702002e+00 1.1933264292610184e+01 0 0 0
305 5 1.3967255876781444e+01 7.1284583397708801e+00 1.0374282483138996e+01 0 0 0
306 6 1.3953888765814408e+01 7.1307540729772372e+00 1.3493641251722192e+01 0 0 0
307 4 1.2977744214515941e+01 8.6364566413220025e+00 1.1933264286714579e+01 0 0 0
308 5 1.6559515766148785e+01 8.8563714867227912e+00 1.0390200607069255e+01 0 0 0
309 6 1.6545908979468223e+01 8.8551251517389336e+00 1.3509460755585467e+01 0 0 0
310 4 1.5578285936044608e+01 1.0367459264927968e+01 1.1951259141509649e+01 0 0 0
311 5 1.9141129838496227e+01 1.0594583494766228e+01 1.0398258851553761e+01 0 0 0
312 6 1.9142632555981262e+01 1.0595342936363172e+01 1.3517788928927194e+01 0 0 0
313 4 1.8169607833292158e+01 1.2107454046899223e+01 1.1962043613030545e+01 0 0 0
314 5 2.1729678136297629e+01 1.2329449632276399e+01 1.0390534142567837e+01 0 0 0
315 6 2.1740725296578972e+01 1.2332391758289829e+01 1.3510662264727245e+01 0 0 0
316 4 2.0757863249935372e+01 1.3840198944842070e+01 1.1955703049024853e+01 0 0 0
317 5 2.4336738032912791e+01 1.4050822714630705e+01 1.0382448417794219e+01 0 0 0
318 6 2.4336738028721413e+01 1.4050822715467056e+01 1.3502979123735184e+01 0 0 0
319 4 2.3349108493625167e+01 1.5554693129753677e+01 1.1946072114523965e+01 0 0 0
320 5 2.6956468446172323e+01 1.5760830662516380e+01 1.0397002365225942e+01 0 0 0
321 6 2.6929147234844052e+01 1.5753281013071332e+01 1.3516877365952979e+01 0 0 0
322 4 2.5943769940546524e+01 1.7255531036070188e+01 1.1955703057913125e+01 0 0 0
323 5 2.9569394005798266e+01 1.7472399933632044e+01 1.0442514821653099e+01 0 0 0
324 6 2.9518090383012066e+01 1.7458554845129228e+01 1.3560515180102337e+01 0 0 0
325 4 2.8536176962009527e+01 1.8959918312450000e+01 1.1994424537031696e+01 0 0 0
326 5 3.2158407459877310e+01 1.9198155270052624e+01 1.0502735741449767e+01 0 0 0
327 6 3.2106225069182898e+01 1.9186471447023575e+01 1.3618772793893392e+01 0 0 0
328 4 3.1120584029625910e+01 2.0684011495257934e+01 1.2048779272688819e+01 0 0 0
329 4 2.1529107499155010e+01 1.3538489732762997e+00 1.2088873485923509e+01 0 1 0
330 4 1.0561584391531541e+01 3.8134469269019426e+00 1.1945832678948902e+01 0 0 0
331 5 1.4161280907317538e+01 4.0032234668409146e+00 1.0388665652798977e+01 0 0 0
332 6 1.4137040250599627e+01 4.0227564018762170e+00 1.3507652646679885e+01 0 0 0
333 4 1.3158886777415489e+01 5.5189493392675253e+00 1.1933264289973861e+01 0 0 0
334 5 1.6750711262584346e+01 5.7168179808358115e+00 1.0407080018765182e+01 0 0 0
335 6 1.6717466689375772e+01 5.7423512697026613e+00 1.3525567328361699e+01 0 0 0
336 4 1.5753403786022592e+01 7.2398780706273866e+00 1.1945832670943892e+01 0 0 0
337 5 1.9327419153028305e+01 7.4495181868196365e+00 1.0421402785007201e+01 0 0 0
338 6 1.9308483328301548e+01 7.4817029876541818e+00 1.3539929482318961e+01 0 0 0
339 4 1.8342915241812513e+01 8.9769789897404983e+00 1.1960054782316988e+01 0 0 0
340 5 2.1907362687393302e+01 9.1906740688882103e+00 1.0415502831490835e+01 0 0 0
341 6 2.1908853016032012e+01 9.2257190555620738e+00 1.3534605807932589e+01 0 0 0
342 4 2.0932184066786501e+01 1.0716726556616566e+01 1.1958276695891460e+01 0 0 0
343 5 2.4507783109255580e+01 1.0927065725529364e+01 1.0397002363894469e+01 0 0 0
344 6 2.4514905520585192e+01 1.0954501414895216e+01 1.3516877364830709e+01 0 0 0
345 4 2.3528162768359294e+01 1.2443575244564173e+01 1.1946072115137332e+01 0 0 0
346 5 2.7131020759458533e+01 1.2653729231905835e+01 1.0390534151464262e+01 0 0 0
347 6 2.7122949220640916e+01 1.2661825297120361e+01 1.3510662274018511e+01 0 0 0
348 4 2.6132942799041370e+01 1.4154199810518158e+01 1.1946072119077614e+01 0 0 0
349 4 2.8740518265464644e+01 1.5860400155722230e+01 1.1976273881896450e+01 0 0 0
350 4 3.1340605278210550e+01 1.7579730483863329e+01 1.2032880404826322e+01 0 0 0
351 4 1.5943409332363673e+01 4.1137619410394297e+00 1.1968068186283684e+01 0 0 0
352 5 1.9533637122716016e+01 4.3213188531461011e+00 1.0465981624022161e+01 0 0 0
353 6 1.9495549577441103e+01 4.3627112023330401e+00 1.3582845812543800e+01 0 0 0
354 4 1.8526112390009128e+01 5.8469179548753658e+00 1.1990159047617645e+01 0 0 0
355 5 2.2100659463431953e+01 6.0632968454601954e+00 1.0468457527069246e+01 0 0 0
356 6 2.2091228340983839e+01 6.1156512946727926e+00 1.3585567880062847e+01 0 0 0
357 4 2.1109689298071984e+01 7.5920641590312821e+00 1.1994258686452211e+01 0 0 0
358 5 2.4683582759594621e+01 7.8084212523978094e+00 1.0442514822232042e+01 0 0 0
359 6 2.4697244367757822e+01 7.8597740410757240e+00 1.3560515180738738e+01 0 0 0
360 4 2.3701987838219747e+01 9.3322485514173383e+00 1.1976273878858599e+01 0 0 0
361 4 2.6308580870423455e+01 1.1056738204996124e+01 1.1955703060347236e+01 0 0 0
362 4 1.8731053152816628e+01 2.7227423912992461e+00 1.2029794708554249e+01 0 0 0
363 5 2.2319488456113287e+01 2.9554712606599014e+00 1.0522636249224037e+01 0 0 0
364 6 2.2299724657700768e+01 2.9948889820243454e+00 1.3638193695785109e+01 0 0 0
365 4 2.1308009542352021e+01 4.4701500550639990e+00 1.2048450409180637e+01 0 0 0
366 4 2.3890928036783535e+01 6.2208420580687269e+00 1.2032880405189335e+01 0 0 0
