LAMMPS data file via write_data, version 30 Mar 2018, timestep = 723

42 atoms
6 atom types

0.0000000000000000e+00 8.2441601841000001e+00 xlo xhi
0.0000000000000000e+00 7.1396526167000003e+00 ylo yhi
0.0000000000000000e+00 1.0000000000000000e+02 zlo zhi
4.1220792877000001e+00 0.0000000000000000e+00 0.0000000000000000e+00 xy xz yz

Masses

1 95.94
2 32.066
3 32.066
4 95.94
5 32.066
6 32.066

Atoms # atomic

1 2 6.4750202303757476e+00 3.4278840509932829e-01 4.0982965233425332e+00 -1 1 0
2 3 6.4801295862416710e+00 3.5266774931786954e-01 7.2120365836918650e+00 -1 1 0
3 2 1.1814352148285487e+00 1.3607271106770593e+00 4.0982965127591058e+00 0 1 0
4 3 1.1874362918487682e+00 1.3513626110965768e+00 7.2120365405522886e+00 0 1 0
5 2 4.1220811322403410e+00 2.3798841974253695e+00 4.0993316538713112e+00 0 1 0
6 3 4.1220811358791991e+00 2.3798841872202479e+00 7.2221074274990569e+00 0 1 0
7 2 1.0008124541293403e+01 4.4213634731562363e+00 4.1010257264226926e+00 -1 0 0
8 3 1.0008079125092952e+01 4.4229012752676331e+00 7.2222879510369138e+00 -1 0 0
9 1 9.4215695888842870e+00 6.1225389886457986e+00 5.6607121349783949e+00 -1 0 0
10 2 4.7097879254823738e+00 5.4361370721063507e+00 4.0982965195407450e+00 0 0 0
11 3 4.6986774856020297e+00 5.4356222597315851e+00 7.2120365713737939e+00 0 0 0
12 1 4.1220805770746791e+00 7.1396525459076043e+00 5.6534514767405302e+00 0 0 0
13 2 7.6552462467937676e+00 6.4566081975054344e+00 4.1010257239693972e+00 0 0 0
14 3 7.6539371551785216e+00 6.4557999350183390e+00 7.2222879364981800e+00 0 0 0
15 1 2.9494562730451501e+00 1.0167428957779812e+00 5.6584180000212143e+00 0 1 0
16 1 5.8889085232757390e+00 2.0459316253261264e+00 5.6584180083577618e+00 0 1 0
17 1 8.8356506888231365e+00 3.0587170167462459e+00 5.6607121165512968e+00 -1 0 0
18 1 3.5278785957050740e+00 4.0769778535884722e+00 5.6584180118522793e+00 0 0 0
19 2 7.0691120845581548e+00 3.4013335319045161e+00 4.1010257210810659e+00 0 0 0
20 3 7.0704665958261561e+00 3.4006039702559616e+00 7.2222879332705947e+00 0 0 0
21 1 6.4752625702803348e+00 5.0980489923489083e+00 5.6607121213719829e+00 0 0 0
22 5 8.2441619796695509e+00 4.7597674734540361e+00 1.0456940566255808e+01 -1 0 0
23 6 8.2441619932877082e+00 4.7597674719505836e+00 1.3579716339882598e+01 -1 0 0
24 5 1.0602210028995911e+01 6.7869839195622506e+00 1.0467011410925926e+01 -1 0 0
25 6 1.0597100648407459e+01 6.7968632508757310e+00 1.3580751471093992e+01 -1 0 0
26 5 8.8207590466434596e+00 1.7040294212380560e+00 1.0467011453658550e+01 -1 1 0
27 6 8.8318694813556924e+00 1.7035145913608671e+00 1.3580751481942066e+01 -1 1 0
28 4 7.6499598921175718e+00 3.0626737093580698e+00 1.2020629994706008e+01 -1 0 0
29 5 2.9483874765987768e+00 3.7390477089318388e+00 1.0456760043913432e+01 0 0 0
30 6 2.9470329912416813e+00 3.7383181431765649e+00 1.3578022266993933e+01 0 0 0
31 4 1.0010989368411284e+01 5.0937199451637847e+00 1.2020629978623447e+01 -1 0 0
32 5 5.3095169356576823e+00 5.7882890404449006e+00 1.0467011421055403e+01 0 0 0
33 6 5.3035158508369147e+00 5.7789245405699221e+00 1.3580751472582861e+01 0 0 0
34 4 4.1220817011629487e+00 7.1396516310996834e+00 1.2025596517030124e+01 0 0 0
35 5 3.5318587627641169e+00 6.8385172623190837e-01 1.0456760061179134e+01 0 1 0
36 6 3.5331678422333486e+00 6.8304346045544617e-01 1.3578022272800441e+01 0 1 0
37 4 2.3531839332778630e+00 2.0416025794831913e+00 1.2018335877748534e+01 0 1 0
38 5 5.8860002398853783e+00 2.7167503616799280e+00 1.0456760055366194e+01 0 0 0
39 6 5.8860456631555920e+00 2.7182881930666847e+00 1.3578022269994280e+01 0 0 0
40 4 4.7135715719316789e+00 4.0809345452409875e+00 1.2018335862051572e+01 0 0 0
41 4 7.0715368896373398e+00 6.1229086654344842e+00 1.2020629987754774e+01 0 0 0
42 4 5.2994911810513523e+00 1.0171125606062805e+00 1.2018335868613619e+01 0 1 0

Velocities

1 8.4644529532035886e-08 8.2824781335207361e-08 -1.3713004056059135e-04
2 -1.0145924042858715e-06 1.3969948544130943e-06 -1.5331031843038073e-04
3 3.2376444954262919e-08 -1.1512323304219104e-07 -1.3713000906378142e-04
4 1.7201017468139494e-06 1.7977829824010968e-07 -1.5331026334998397e-04
5 1.3448336746149374e-09 -1.0742934766080297e-09 -1.3894921400728756e-04
6 1.3367848127520307e-09 -1.0253405154922358e-09 -1.3909716988393149e-04
7 3.6467359488073492e-07 -1.8044244190108223e-07 -1.3827997275300648e-04
8 -1.8514158752254686e-06 5.6262913033892178e-08 -1.4014027164718112e-04
9 3.5533722134616948e-07 -5.4476915788335688e-07 4.2566885455458770e-05
10 -1.1290821283515638e-07 2.9076838509934359e-08 -1.3713002997132296e-04
11 -7.0138168729813890e-07 -1.5800039798690959e-06 -1.5331031364284269e-04
12 1.5159200416199983e-09 -1.1711681723799760e-09 4.7207468742063933e-05
13 -2.4997552893213696e-08 4.0329869272349964e-07 -1.3827996362156768e-04
14 8.7814037229585042e-07 -1.6341471868770112e-06 -1.4014024605165572e-04
15 -2.3083675920900158e-06 1.3464499187934661e-06 4.3333760362548613e-05
16 -1.0656633713545362e-08 -2.6753282590106673e-06 4.3333724748204457e-05
17 -6.4626952865045784e-07 -3.5813560034178624e-08 4.2566942799231472e-05
18 2.3234209506545011e-06 1.3254224836658693e-06 4.3333714151663214e-05
19 -3.3564450030409698e-07 -2.2606259606708111e-07 -1.3827996363118417e-04
20 9.7730509078632989e-07 1.5747941910133763e-06 -1.4014025020563258e-04
21 2.9537152760352332e-07 5.7710746932509309e-07 4.2566924985458988e-05
22 -1.3368153221014858e-09 1.0545207534527212e-09 1.3910646368364081e-04
23 -1.3457049272100487e-09 1.0445164331333290e-09 1.3895885863130460e-04
24 -1.0174246337197181e-06 -1.3971002769516103e-06 1.5332027917642159e-04
25 8.1816018183287509e-08 -8.2858881349126552e-08 1.3713959234518342e-04
26 -7.0421576497376885e-07 1.5800393556486009e-06 1.5332022841375560e-04
27 -1.1560997667886606e-07 -2.9010256926526171e-08 1.3713956602498108e-04
28 2.3205830392553591e-06 -1.3254840553445678e-06 -4.3342933466653224e-05
29 9.7476768769079175e-07 -1.5749268390296315e-06 1.4014956738026644e-04
30 -3.3834627420203519e-07 2.2598060924617898e-07 1.3828956875425747e-04
31 -1.3588046554000550e-08 2.6754055299838117e-06 -4.3342882043067633e-05
32 1.7174451443115933e-06 -1.7970338091199834e-07 1.5332028074038832e-04
33 2.9736492221192086e-08 1.1508176359153370e-07 1.3713959456558908e-04
34 -1.4998603919092432e-09 1.1898035682341021e-09 -4.7216922750625763e-05
35 8.7542511911336485e-07 1.6343150264926543e-06 1.4014953927949126e-04
36 -2.7670208274698568e-08 -4.0328452750466880e-07 1.3828955785542786e-04
37 2.9235487101122354e-07 -5.7716420076447773e-07 -4.2576108409234111e-05
38 -1.8542211456933781e-06 -5.6216265357512782e-08 1.4014954752404482e-04
39 3.6199402498486296e-07 1.8044002506089230e-07 1.3828956155929867e-04
40 -6.4919731588600003e-07 3.5851744848380597e-08 -4.2576053126247014e-05
41 -2.3114057549182052e-06 -1.3464853646511216e-06 -4.3342907451824417e-05
42 3.5240255015783807e-07 5.4478554064547332e-07 -4.2576075841887451e-05
