LAMMPS data file via write_data, version 30 Mar 2018, timestep = 1529

148 atoms
2 atom types

0.0000000000000000e+00 1.4963596465800000e+01 xlo xhi
0.0000000000000000e+00 1.2958855110800000e+01 ylo yhi
0.0000000000000000e+00 1.0000000000000000e+02 zlo zhi
7.4817974716000002e+00 0.0000000000000000e+00 0.0000000000000000e+00 xy xz yz

Masses

1 12.011
2 12.011

Atoms # atomic

1 1 1.3548292456657002e+01 1.1816629726516593e-01 9.9880517780605075e+01 -1 1 -1
2 1 8.0998697139489728e-01 1.1666058779529167e+00 9.9880518085245811e+01 0 1 -1
3 1 1.8601475558909293e+01 9.5753795768461210e+00 9.9925149685197923e+01 -1 0 -1
4 1 2.0825582906796832e+01 1.0625444301762508e+01 9.9894737272709847e+01 -1 0 -1
5 1 2.0220200137895016e+01 1.1910324359221905e+01 9.9890305278249585e+01 -1 0 -1
6 1 8.0871143513411994e+00 1.1674082554749386e+01 9.9880517881153807e+01 0 0 -1
7 1 7.4817974314473155e+00 1.2958854943455357e+01 9.9875292498297256e+01 0 0 -1
8 1 1.0312495850507078e+01 1.2722762716580213e+01 9.9894737796146657e+01 0 0 -1
9 1 2.2252581787499874e+00 1.0486839315510286e+00 9.9890191592638146e+01 0 1 -1
10 1 5.0556461395415955e+00 8.1422437112581048e-01 9.9925507304342020e+01 0 1 -1
11 1 4.4498639163896794e+00 2.0989709537480832e+00 9.9922618650285813e+01 0 1 -1
12 1 7.2802636670500158e+00 1.8672462512368218e+00 9.9944651417329624e+01 0 1 -1
13 1 1.6178602065661217e+01 6.0706869452640682e+00 9.9936641354297166e+01 -1 0 -1
14 1 1.8400408935318385e+01 7.1221396908519079e+00 9.9940615989143538e+01 -1 0 -1
15 1 1.7794153418316089e+01 8.4071142415943498e+00 9.9940262617870644e+01 -1 0 -1
16 1 5.6591136027181239e+00 8.1734245366721101e+00 9.9925506764719827e+01 0 0 -1
17 1 2.0016801921933990e+01 9.4583002980588784e+00 9.9913964336849403e+01 -1 0 -1
18 1 7.8832475337315984e+00 9.2229573174835213e+00 9.9907207974916574e+01 0 0 -1
19 1 7.2773554567664824e+00 1.0507382630740260e+01 9.9890191132806137e+01 0 0 -1
20 1 1.0108511134408758e+01 1.0271848735712197e+01 9.9906764475826236e+01 0 0 -1
21 1 9.5024485170452380e+00 1.1556045807279640e+01 9.9890305647135577e+01 0 0 -1
22 1 1.2333932341855750e+01 1.1321661533987905e+01 9.9925150167411090e+01 0 0 -1
23 1 1.1727662689725708e+01 1.2605909724600401e+01 9.9913964920748796e+01 0 0 -1
24 1 1.4559033648482778e+01 1.2374152586407297e+01 9.9940616092393483e+01 0 0 -1
25 1 6.4708426754695179e+00 6.9956571199602424e-01 9.9938061460150521e+01 0 1 -1
26 1 9.3022913447236668e+00 4.6877843871086833e-01 9.9931673700339971e+01 0 1 -1
27 1 8.6957015300581642e+00 1.7529048020356401e+00 9.9938958257026755e+01 0 1 -1
28 1 1.1527489192736537e+01 1.5202828964686039e+00 9.9907207978688888e+01 0 1 -1
29 1 1.5977254998579321e+01 3.6183037509050329e+00 9.9906764699956412e+01 -1 0 -1
30 1 1.5371030587962032e+01 4.9027719419772406e+00 9.9923605988496277e+01 -1 0 -1
31 1 3.2366262521943687e+00 4.6684447851777220e+00 9.9931674129720463e+01 0 0 -1
32 1 1.7594078972670903e+01 5.9534545361752098e+00 9.9938712623859814e+01 -1 0 -1
33 1 5.4587485907827364e+00 5.7203382097524482e+00 9.9944651353119127e+01 0 0 -1
34 1 4.8522181184793958e+00 7.0051576530492001e+00 9.9938061194432990e+01 0 0 -1
35 1 7.6818973713052028e+00 6.7717018366369226e+00 9.9938803941662883e+01 0 0 -1
36 1 7.0746278714467570e+00 8.0556739340229164e+00 9.9922618111960134e+01 0 0 -1
37 1 9.9064761316875156e+00 7.8216315813407933e+00 9.9931673805170490e+01 0 0 -1
38 1 9.2988443402100831e+00 9.1049382481044869e+00 9.9913775692704604e+01 0 0 -1
39 1 1.2131663654705640e+01 8.8712853326280765e+00 9.9936641266278897e+01 0 0 -1
40 1 1.1524005396761414e+01 1.0154620299387215e+01 9.9923605891145158e+01 0 0 -1
41 1 1.4356436780072329e+01 9.9227301023673142e+00 9.9945451421722609e+01 0 0 -1
42 1 1.3749340862380052e+01 1.1206632605716964e+01 9.9940262885977290e+01 0 0 -1
43 1 1.6580521937938670e+01 1.0975737635034699e+01 9.9936640997194772e+01 0 0 -1
44 1 1.5974309652925104e+01 1.2260192779637803e+01 9.9938712355770448e+01 0 0 -1
45 1 1.8805021561114543e+01 1.2027557381005371e+01 9.9906764117939090e+01 0 0 -1
46 1 1.0717483398804770e+01 3.5334955557995995e-01 9.9913775499045229e+01 0 1 -1
47 1 1.2942780167857931e+01 1.4027880608414298e+00 9.9890191220841345e+01 0 1 -1
48 1 1.5168139085358799e+01 2.4513395682525827e+00 9.9890305736580814e+01 -1 0 -1
49 1 3.0346570314064722e+00 2.2156145470522963e+00 9.9907208512842487e+01 0 0 -1
50 1 2.4290660443640979e+00 3.5005668495643945e+00 9.9913776082323324e+01 0 0 -1
51 1 5.2581815611200211e+00 3.2668678485911546e+00 9.9938804334829669e+01 0 0 -1
52 1 4.6520071938526533e+00 4.5517037023142510e+00 9.9938958526327312e+01 0 0 -1
53 1 7.4817979073083354e+00 4.3196182817491842e+00 9.9950324778308698e+01 0 0 -1
54 1 6.8742946544091694e+00 5.6036083285086580e+00 9.9945117645036731e+01 0 0 -1
55 1 9.7063814621102065e+00 5.3712703740547969e+00 9.9944651265143889e+01 0 0 -1
56 1 9.0976850246008123e+00 6.6542461980989662e+00 9.9938958250144182e+01 0 0 -1
57 1 1.1931345072228364e+01 6.4214176471969111e+00 9.9940616061184315e+01 0 0 -1
58 1 1.1322399068120824e+01 7.7040624969434788e+00 9.9938712521708567e+01 0 0 -1
59 1 1.4155637568020897e+01 7.4716747376939621e+00 9.9945451471164830e+01 0 0 -1
60 1 1.3547468416822053e+01 8.7550777299100755e+00 9.9947159809574913e+01 0 0 -1
61 1 1.6378713298644925e+01 8.5233050869167517e+00 9.9945451322212151e+01 0 0 -1
62 1 1.5771980926149489e+01 9.8077184710457015e+00 9.9947159638615517e+01 0 0 -1
63 1 1.7995751727460945e+01 1.0860317538832144e+01 9.9923605449483929e+01 0 0 -1
64 1 6.6735815681529296e+00 3.1515100000668581e+00 9.9945117807577176e+01 0 0 -1
65 1 9.5053147942497436e+00 2.9202851375811352e+00 9.9938803982981881e+01 0 0 -1
66 1 8.8975175170930640e+00 4.2037363815952906e+00 9.9945117635116816e+01 0 0 -1
67 1 1.1730633998371241e+01 3.9712058804562251e+00 9.9925506974823094e+01 0 0 -1
68 1 1.1122332959588871e+01 5.2541313325091972e+00 9.9938061300511691e+01 0 0 -1
69 1 1.3955379773883504e+01 5.0206687827026437e+00 9.9925150117040289e+01 0 0 -1
70 1 1.3347293413765540e+01 6.3039629689444165e+00 9.9940262893037627e+01 0 0 -1
71 1 1.5571338351524478e+01 7.3549136260292585e+00 9.9947159800891839e+01 0 0 -1
72 1 1.0920901985057373e+01 2.8042097792184957e+00 9.9922618209052359e+01 0 0 -1
73 1 1.3752708947120320e+01 2.5695028360821803e+00 9.9894737611365031e+01 0 0 -1
74 1 1.3146323107612819e+01 3.8534997441894423e+00 9.9913964726211660e+01 0 0 -1
75 2 2.1030087235392774e+01 1.2840691702851400e+01 3.4194822191975915e+00 -1 0 0
76 2 1.5568910490936631e+01 1.2847754406342025e+00 3.4194819144665316e+00 -1 1 0
77 2 1.7188176919697771e+01 7.5875876176338082e+00 3.3553486965315624e+00 -1 0 0
78 2 1.9212429268687217e+01 8.9876521074291222e+00 3.3744932897065696e+00 -1 0 0
79 2 1.8402697124846856e+01 1.0154648138598782e+01 3.3773819885341325e+00 -1 0 0
80 2 6.2709075627196613e+00 1.0389355159740942e+01 3.4052627283534274e+00 0 0 0
81 2 2.0424575121882953e+01 1.1556069864601966e+01 3.4098089559038800e+00 -1 0 0
82 2 8.2917818785610660e+00 1.1792252122255892e+01 3.4194821170072434e+00 0 0 0
83 2 1.4963593736155881e+01 2.9886731408631273e-06 3.4247075009180818e+00 -1 1 0
84 2 2.8306956511536145e+00 2.3609528053841272e-01 3.4052622053252617e+00 0 1 0
85 2 2.0206481968004200e+00 1.4028121216497442e+00 3.4096941642920422e+00 0 1 0
86 2 4.8521319932711826e+00 1.6371964553733671e+00 3.3748497234137065e+00 0 1 0
87 2 1.5365043405935628e+01 3.7359006786562134e+00 3.3927915701727089e+00 -1 0 0
88 2 1.7388271869606349e+01 5.1372263998197489e+00 3.3683258821494872e+00 -1 0 0
89 2 1.6579480650200146e+01 6.3046117237976524e+00 3.3610415140606391e+00 -1 0 0
90 2 4.4495441913770923e+00 6.5374403319151160e+00 3.3593840020666033e+00 0 0 0
91 2 1.8604128418705855e+01 7.7047265771900335e+00 3.3619388271415827e+00 -1 0 0
92 2 6.4735787104023430e+00 7.9381892095812638e+00 3.3748502671388141e+00 0 0 0
93 2 5.6645219102700270e+00 9.1053581738817897e+00 3.3860356577321014e+00 0 0 0
94 2 8.4954537516978732e+00 9.3405542538933055e+00 3.3932357407783922e+00 0 0 0
95 2 7.6863377015369636e+00 1.0507518361483262e+01 3.4096946309940175e+00 0 0 0
96 2 1.0516452076285194e+01 1.0743243460621727e+01 3.3927917933807681e+00 0 0 0
97 2 9.7070530873059617e+00 1.1910174003208846e+01 3.4098085918150072e+00 0 0 0
98 2 1.2537441018762472e+01 1.2144633633114184e+01 3.3744928151884173e+00 0 0 0
99 2 4.2458624961376223e+00 3.5294820911662217e-01 3.3860350669225490e+00 0 1 0
100 2 7.0772334224978932e+00 5.8470541319052927e-01 3.3593838925110289e+00 0 1 0
101 2 6.2675405217020366e+00 1.7522253274180881e+00 3.3597370177895125e+00 0 1 0
102 2 9.0987215531738812e+00 1.9831203707178635e+00 3.3633588729223569e+00 0 1 0
103 2 1.4759151486021780e+01 2.4514753027811067e+00 3.4098085037233625e+00 -1 0 0
104 2 2.6267106595541749e+00 2.6870092519922846e+00 3.3932352212640784e+00 0 0 0
105 2 1.6780640221205871e+01 3.8539196782917169e+00 3.3862239153106475e+00 -1 0 0
106 2 4.6498630440438351e+00 4.0875726457242312e+00 3.3633585699375690e+00 0 0 0
107 2 3.8405983477440695e+00 5.2547954171703299e+00 3.3612873343982068e+00 0 0 0
108 2 6.6738368101239658e+00 5.4871832517819490e+00 3.3545486407686891e+00 0 0 0
109 2 5.8654925351489098e+00 6.6548949520499106e+00 3.3597373370401349e+00 0 0 0
110 2 8.6968011397856078e+00 6.8881710671849747e+00 3.3633589373546546e+00 0 0 0
111 2 7.8892295268242076e+00 8.0560859914962180e+00 3.3763944512634931e+00 0 0 0
112 2 1.0718421620213796e+01 8.2904132391384859e+00 3.3683261585695825e+00 0 0 0
113 2 9.9108612644497551e+00 9.4582910929116597e+00 3.3862243132167493e+00 0 0 0
114 2 1.2739976753922985e+01 9.6919901760211573e+00 3.3611958577315941e+00 0 0 0
115 2 1.1931658960889356e+01 1.0859886988980719e+01 3.3773815721497416e+00 0 0 0
116 2 1.4762058684023348e+01 1.1091611759843817e+01 3.3553486852744543e+00 0 0 0
117 2 1.3952637554868012e+01 1.2259292226003129e+01 3.3619385892624116e+00 0 0 0
118 2 1.6784086182091283e+01 1.2490079565683995e+01 3.3683263219969812e+00 0 0 0
119 2 8.4925094318105057e+00 6.9866516042975668e-01 3.3612875704384955e+00 0 1 0
120 2 1.1323221281578762e+01 9.3130062373586853e-01 3.3932357420378851e+00 0 1 0
121 2 1.0513951345809380e+01 2.0985404078200487e+00 3.3763943320672083e+00 0 1 0
122 2 4.0422049302725576e+00 2.8042376244794074e+00 3.3763938854443278e+00 0 0 0
123 2 6.8746362877829466e+00 3.0361278910500085e+00 3.3545484992549115e+00 0 0 0
124 2 6.0656678152259964e+00 4.2037801983034493e+00 3.3528401405532495e+00 0 0 0
125 2 8.8969126544499808e+00 4.4355529235422768e+00 3.3545486428843088e+00 0 0 0
126 2 8.0895375972254406e+00 5.6039443185633910e+00 3.3528403470886023e+00 0 0 0
127 2 1.0918608133308272e+01 5.8367183357135861e+00 3.3593839606840952e+00 0 0 0
128 2 1.0112278049984244e+01 7.0054034234691498e+00 3.3612875917996479e+00 0 0 0
129 2 1.2940544091943448e+01 7.2385198175901797e+00 3.3553485805971381e+00 0 0 0
130 2 1.2133802564062311e+01 8.4071542554555201e+00 3.3610416363212243e+00 0 0 0
131 2 1.4963593233716356e+01 8.6392397329298678e+00 3.3496752210335754e+00 0 0 0
132 2 1.4155376759806682e+01 9.8073479442348752e+00 3.3548822911554428e+00 0 0 0
133 2 1.6987109936625529e+01 1.0038572861441066e+01 3.3611961407422792e+00 0 0 0
134 2 1.6177496544036753e+01 1.1205953129487426e+01 3.3610418140927072e+00 0 0 0
135 2 1.9009284147855460e+01 1.1438575100934161e+01 3.3927921678103981e+00 0 0 0
136 2 1.8199278235790093e+01 1.2605508377434212e+01 3.3862244952460223e+00 0 0 0
137 2 1.2738399862596038e+01 1.0485335755595064e+00 3.4096945404850891e+00 0 1 0
138 2 8.2901804389249509e+00 3.1511394774219679e+00 3.3528402612795869e+00 0 0 0
139 2 1.1119675015642098e+01 3.3834784377288467e+00 3.3748500377001331e+00 0 0 0
140 2 1.0312352780343510e+01 4.5517437183790639e+00 3.3597372462761532e+00 0 0 0
141 2 1.3140909370084175e+01 4.7854334764273005e+00 3.3744928491328334e+00 0 0 0
142 2 1.2334013784692146e+01 5.9537003086931675e+00 3.3619386264777105e+00 0 0 0
143 2 1.5163692993814898e+01 6.1871561668347423e+00 3.3611957400205075e+00 0 0 0
144 2 1.4356090159281479e+01 7.3552496157077485e+00 3.3548822205723692e+00 0 0 0
145 2 1.6379312844829336e+01 8.7551215406105403e+00 3.3548823985519451e+00 0 0 0
146 2 1.3343782466829660e+01 2.3334137007385838e+00 3.4052623838651748e+00 0 0 0
147 2 1.2535001383869030e+01 3.5005576501851623e+00 3.3860352893717733e+00 0 0 0
148 2 1.4556423644384601e+01 4.9031840063559935e+00 3.3773814659237589e+00 0 0 0

Velocities

1 -1.3924470087478533e-06 -7.2465852773662115e-05 -2.8466274987557025e-05
2 -5.5951100170603386e-05 4.5691411848886917e-05 -2.8394692618573358e-05
3 -5.4511483962904827e-05 -1.6740314439430139e-04 -3.3002478537563742e-05
4 6.6863362999596351e-05 2.7318662284912501e-05 -3.0977545259341623e-05
5 7.0781916635049208e-05 3.2437289806650352e-05 -3.0653540342450132e-05
6 5.4955365802680144e-05 2.6111902319427687e-05 -2.8425736168385542e-05
7 -5.3355886287444370e-06 -3.0801992860977386e-06 -2.7792200401485602e-05
8 -4.4826410602922106e-05 4.2428125850239688e-05 -3.0834951695970453e-05
9 6.0853474900150693e-05 -2.6037373310432193e-05 -2.9261495395670832e-05
10 -7.2768614149170218e-05 -6.2145397274699068e-05 -3.5387054541475108e-05
11 -6.4495262182828953e-05 -1.0259912034707815e-05 -3.5012383973421244e-05
12 8.5215650781378320e-05 1.5475757407000135e-05 -3.7395127461373545e-05
13 -3.6612856850629418e-05 -1.7288327989097062e-04 -3.7619611205152259e-05
14 1.4446536338141592e-04 3.6322128265325541e-05 -3.6526735104156822e-05
15 1.5040389336080898e-04 1.0343117845738393e-04 -3.8250373639900014e-05
16 -2.9888719926127958e-05 9.4770282680291815e-05 -3.5337273950565362e-05
17 3.3241729553557651e-05 -9.9222686495300676e-05 -3.1920061812412494e-05
18 -7.2854462923960535e-05 -2.8253213960652901e-05 -3.1966287641818172e-05
19 -5.8723497325436760e-05 -2.7223650566367562e-05 -2.9368198958566352e-05
20 -3.4297295991987445e-05 -8.2936552267777212e-05 -3.1562987257845591e-05
21 -5.6717527533601389e-05 3.4124051072818948e-05 -3.0534197246751067e-05
22 1.6752892204996103e-04 2.7984779655181512e-05 -3.2998903487430383e-05
23 5.7130084187804762e-05 7.9351381629029857e-05 -3.2086282696893534e-05
24 -9.8406552624281127e-05 1.0614272276986348e-04 -3.6522284987651032e-05
25 5.6385680185533815e-05 -1.1961732156754439e-04 -3.5828958906509531e-05
26 -2.6412942728524751e-05 -1.2739768892037597e-04 -3.5049268554121415e-05
27 -7.4125031992173165e-05 7.5119370198855129e-05 -3.5848122128266538e-05
28 2.2838984056704775e-05 8.0562075564620891e-05 -3.2073893670493878e-05
29 9.9881542762687728e-05 1.4316456289064861e-05 -3.1440468616153454e-05
30 1.3229815180001590e-04 1.0043109597982526e-04 -3.3206762867947076e-05
31 -1.0052033313669750e-04 8.9747986680759997e-05 -3.5041368446569152e-05
32 8.0777389869113595e-06 -1.4053370420624622e-04 -3.6903274580561856e-05
33 -2.2081278715890574e-05 -8.8505957703956701e-05 -3.7370995014555148e-05
34 -1.3403064328889157e-04 2.0271187398640740e-05 -3.5896124098393301e-05
35 2.5934215587687963e-05 -2.8785507202001007e-05 -3.6042228358495882e-05
36 3.5747867161761033e-05 5.7010856364937247e-05 -3.5014045381056186e-05
37 1.1775403973140331e-04 3.8156149970436425e-05 -3.5041490233520118e-05
38 7.9412076522223255e-05 5.1283468220063039e-05 -3.2900806762732967e-05
39 -1.2614780458850269e-04 1.1404851322605976e-04 -3.7527850580310485e-05
40 1.9147264036879818e-05 -1.5852836361612561e-04 -3.3257981496628164e-05
41 -6.2783710476556004e-05 -1.8313097453977837e-04 -3.6580640019219526e-05
42 -1.6140603520767776e-04 7.3608826532732207e-05 -3.8210692574389082e-05
43 1.6748896901872621e-04 5.4350383694830208e-05 -3.7601412612892083e-05
44 1.1262246657459197e-04 7.5529891331180672e-05 -3.6915916940478415e-05
45 -6.6880134736301214e-05 7.5396404390555433e-05 -3.1390084033944289e-05
46 3.8139869189545731e-06 -1.0482808666007604e-04 -3.2929130829210417e-05
47 -4.0203116695250107e-06 7.3016523593723968e-05 -2.9217864629799237e-05
48 1.7880026421888360e-06 -7.8303827436744487e-05 -3.0642091831650502e-05
49 5.5763507472720328e-05 -6.1989271893011800e-05 -3.2134051359864543e-05
50 -9.4423651109094362e-05 4.8862692876807335e-05 -3.2938517629508987e-05
51 2.1958365915985621e-05 4.1013004497259941e-05 -3.5933034888154767e-05
52 1.0625841281912999e-04 2.5717894364165004e-05 -3.5848778858664412e-05
53 -4.6849019410050076e-06 8.2558824562938657e-07 -3.7926435965477236e-05
54 1.7016799307651179e-05 -3.6576139095145754e-06 -3.6829055125359575e-05
55 -5.4499210587603448e-05 5.8429299004651550e-05 -3.7368473263853656e-05
56 -3.0279358727142002e-05 -9.3970950531678050e-05 -3.5890757970072988e-05
57 -4.3249704109147430e-05 -1.3418784533152100e-04 -3.6553482535050783e-05
58 -1.1670702382039122e-04 5.7161168362270662e-05 -3.6902233931961476e-05
59 1.9216451637158765e-04 3.7101947688082932e-05 -3.6572245901200432e-05
60 1.4834305173501905e-04 1.2451985087849789e-04 -3.6926268034286415e-05
61 -1.3231259559912771e-04 1.4754230717196467e-04 -3.6565880390248503e-05
62 3.2130492045617330e-05 -1.9529775725462845e-04 -3.6907344845467466e-05
63 -1.5205177809721239e-04 7.0632191793353454e-05 -3.3249391413850272e-05
64 -1.4274411677450341e-05 2.1349154692517691e-05 -3.6859723369237063e-05
65 -4.4157831769574905e-05 2.0535955951297027e-07 -3.5960695529071560e-05
66 -4.7375532831371374e-06 -2.0766618815707163e-05 -3.6879143780598420e-05
67 9.3103238956529673e-05 -2.9930555275627985e-05 -3.5365744895734888e-05
68 7.3183750100392465e-05 1.0664189544843792e-04 -3.5814187981454702e-05
69 -1.1174084614362499e-04 1.3284100256867625e-04 -3.2969937178353662e-05
70 1.7783286936112002e-05 -1.7896129094613551e-04 -3.8226493812875583e-05
71 -1.8411430113297880e-04 7.0727697263024420e-05 -3.6915542962800055e-05
72 3.9134371577101575e-05 -5.3574396575993608e-05 -3.5033762259881031e-05
73 -1.8803774612663867e-05 -6.6715033812955014e-05 -3.0911149334988104e-05
74 -1.0025648953906391e-04 1.2595036205624321e-05 -3.2068902917990198e-05
75 1.0880783466573992e-05 5.3067493856620229e-05 2.8536612572503535e-05
76 6.0943334368561623e-05 -3.6006230109220993e-06 2.8271958593543062e-05
77 -4.5353775452938527e-05 -6.4924434139857192e-05 3.7428888720864317e-05
78 9.5424763422664454e-05 3.4012236455914682e-05 3.5391690631608591e-05
79 3.8959279689509533e-05 5.2590687060929616e-05 3.5054460930910058e-05
80 -1.6887093430012925e-05 6.8594794102767336e-05 3.0914670476053260e-05
81 8.2333721933644792e-06 -6.5633640632326606e-05 2.9375541929268163e-05
82 -7.0340271243135599e-05 -4.2534332875285079e-05 2.8466578213397895e-05
83 -1.4627819489786332e-05 -1.7192698744527334e-05 2.7797410009452522e-05
84 -2.6270810432935941e-05 -5.8307940624897236e-05 3.0659037815927262e-05
85 -6.5797344257185483e-05 -1.0683440430285959e-05 3.0480968076155120e-05
86 1.5908617490102881e-04 -4.4901123275517335e-06 3.2985213815229706e-05
87 -5.3508925948594048e-05 5.6062395666769677e-06 3.2211918836060765e-05
88 1.1932602388511761e-04 -1.3040857890678331e-05 3.4748006572035098e-05
89 -8.1889301113403117e-06 8.6202523973703400e-05 3.5946371868455413e-05
90 -5.6138282784025631e-05 1.2094269811027057e-04 3.6553110932784694e-05
91 6.4349401206420276e-05 -1.0881911395613412e-04 3.5741832458740730e-05
92 -1.0331165794662112e-04 -1.2930934133042685e-04 3.3046434258833864e-05
93 -1.0260547886835966e-04 -1.2964163648271858e-05 3.2025325793840357e-05
94 9.9818465684822530e-05 -1.7729383530124833e-05 3.1427521556426542e-05
95 -3.7809331490802623e-07 8.2073061722998374e-05 3.0694843873231413e-05
96 5.4759659383193014e-05 6.8147770903179627e-05 3.2187728146545977e-05
97 7.4386666320548083e-05 2.7197478111315188e-05 2.9116371068295547e-05
98 -8.0703209620719847e-05 5.7401677644800375e-05 3.5415157759056766e-05
99 4.0861489596926512e-05 -9.1247499833746945e-05 3.2338132275298639e-05
100 -7.8271222716484967e-05 -1.0948953719579668e-04 3.6542983281069085e-05
101 -1.5580901389475543e-04 -5.1890058051556325e-05 3.8120574518453977e-05
102 1.4540732180491061e-04 -3.7760180543422454e-05 3.7350819383171861e-05
103 -3.0690841048144553e-05 2.8095851652678167e-05 2.9392370149450891e-05
104 -5.7308744790344504e-05 7.3990143344764689e-05 3.1862119776782447e-05
105 6.2905392327190261e-05 -7.0009156772080005e-05 3.3176156643884626e-05
106 -1.0229835156603472e-04 -1.2315984996466231e-04 3.7429701720018413e-05
107 -1.2138875133328444e-04 -3.5046670480806844e-05 3.6880391177605152e-05
108 1.8060313087153590e-04 -1.9221593557140048e-05 3.6635787786369956e-05
109 3.2566335654281197e-05 1.6448685988487791e-04 3.8153901662336753e-05
110 -3.8816209182475326e-05 1.5633141994631376e-04 3.7450828915790122e-05
111 1.2269315032967275e-04 -9.3082125194172548e-05 3.3263443859975321e-05
112 -9.3638689974380798e-05 -7.9173205103476963e-05 3.5082055866709669e-05
113 -9.3264050549809666e-05 -5.4059202176105473e-05 3.2877716753404774e-05
114 2.1454669290439990e-05 -4.7063752928245088e-05 3.5913197952799904e-05
115 -6.4326986519648219e-05 1.7482725855515430e-05 3.5079513748544216e-05
116 7.7818885713165943e-05 -7.4313705618621863e-06 3.7420723352967081e-05
117 6.4672466113164498e-05 1.1060937623753844e-04 3.5723894167681084e-05
118 -2.4107632258993849e-05 1.1355469624819785e-04 3.5042645200618573e-05
119 9.2811009474321043e-05 -7.3003236376966631e-05 3.6859453563293329e-05
120 -5.0756169663449387e-05 -6.3581600799785871e-05 3.1585211831783509e-05
121 -1.3182582607425034e-04 -5.7190173153547415e-05 3.3356774815984976e-05
122 4.3386946539875614e-05 1.4570783376802337e-04 3.3052113882487975e-05
123 -7.2001219063970256e-05 1.6279790954986788e-04 3.6651675402709304e-05
124 1.2523480093778989e-04 -1.2691033849820011e-04 3.7023290891107576e-05
125 -1.0992439820526974e-04 -1.3922772591851262e-04 3.6630088473066092e-05
126 -1.7436164796718381e-04 -5.6960800350116758e-05 3.6978967825330543e-05
127 1.2351447181539131e-04 -2.9915597815340756e-05 3.6526877177192294e-05
128 1.2596120939743239e-05 1.2395148066959272e-04 3.6881829048912435e-05
129 -1.5724085908526929e-05 7.4385247163600581e-05 3.7372635746355889e-05
130 9.7321318565140791e-05 -1.4980655159901386e-05 3.5896539347721991e-05
131 -7.8813623886724331e-08 9.4693426453797788e-06 3.7915800792524473e-05
132 -1.2441809971246065e-05 -2.6329101965767709e-05 3.6835985841478691e-05
133 -4.3379150435383889e-05 -3.7528188088709315e-06 3.5960857319860938e-05
134 -6.7932144711693040e-05 -6.6298334905985195e-05 3.5911238953497460e-05
135 9.2889681749558795e-06 -7.3445549500945477e-05 3.1945931520902216e-05
136 3.5074678887065994e-06 8.6763671216125632e-05 3.2887731978617224e-05
137 5.2760559125389329e-05 -1.5916098870048062e-05 3.0399568279284966e-05
138 4.4025442619464781e-05 1.7140572224954130e-04 3.7014916769087811e-05
139 -4.7292814336255045e-05 1.4112456736139578e-04 3.3225552844604929e-05
140 1.2623591299939306e-04 -8.9197244177671538e-05 3.8019358586354217e-05
141 -1.6052857732283194e-05 -7.2726788582960685e-05 3.5152207839045031e-05
142 -1.1325065589933166e-04 -1.8100596897421531e-05 3.5917828499640077e-05
143 5.0643451246658845e-06 2.3191796329628583e-05 3.6131456264793779e-05
144 1.2357034756289840e-05 -7.8059878497163906e-06 3.6880354347452516e-05
145 -1.0789186439123417e-05 2.7879248887804970e-05 3.6866394026450373e-05
146 3.8433861888795959e-05 -2.2750237390221545e-05 3.0763395285767460e-05
147 2.9675455822194893e-05 7.2330365482492666e-05 3.2219062053112090e-05
148 1.8491419577553507e-05 -3.3448673110652952e-05 3.4701676366013549e-05
