LAMMPS data file via write_data, version 30 Mar 2018, timestep = 836

114 atoms
6 atom types

0.0000000000000000e+00 1.3582428999999999e+01 xlo xhi
0.0000000000000000e+00 1.1762727999999999e+01 ylo yhi
0.0000000000000000e+00 1.0000000000000000e+02 zlo zhi
6.7912150000000002e+00 0.0000000000000000e+00 0.0000000000000000e+00 xy xz yz

Masses

1 95.94
2 32.066
3 32.066
4 95.94
5 32.066
6 32.066

Atoms # atomic

1 2 1.1798111052707291e+01 2.0026837107241693e-01 4.1149838284981692e+00 -1 1 0
2 3 1.1788697516349213e+01 2.0341255412951970e-01 7.2355867800145575e+00 -1 1 0
3 2 1.0655540786404336e+00 1.4449766610934118e+00 4.1149837721990066e+00 0 1 0
4 3 1.0729838637387943e+00 1.4515569844542371e+00 7.2355867110188781e+00 0 1 0
5 2 3.9172869144958953e+00 2.6870000263218539e+00 4.0941867822979816e+00 0 1 0
6 3 3.9324980819325250e+00 2.7019412990293552e+00 7.2091968869178418e+00 0 1 0
7 2 1.5367129871478877e+01 7.6412347515705248e+00 4.1131561144207351e+00 -1 0 0
8 3 1.5376450166514385e+01 7.6425159196539605e+00 7.2346938145087289e+00 -1 0 0
9 2 1.8232715486218485e+01 8.8822279145287784e+00 4.1098591716820660e+00 -1 0 0
10 3 1.8239228691012940e+01 8.8758395740134883e+00 7.2296750265634966e+00 -1 0 0
11 1 1.7509564855336112e+01 1.0524799099507185e+01 5.6736056651958915e+00 -1 0 0
12 2 7.5097819794891123e+00 1.0117289040122342e+01 4.1149838354915218e+00 0 0 0
13 3 7.5117658078373015e+00 1.0107564615517887e+01 7.2355867891669492e+00 0 0 0
14 1 2.0373578380571708e+01 1.1762663402032729e+01 5.6787067160133606e+00 -1 0 0
15 2 1.0356111113233515e+01 1.1348839554196251e+01 4.1098590964493109e+00 0 0 0
16 3 1.0358386935547671e+01 1.1357674435118200e+01 7.2296749346405260e+00 0 0 0
17 1 2.8554698141639254e+00 1.2437248895083308e+00 5.6662487732528302e+00 0 1 0
18 2 6.4229058728426933e+00 8.1536008918668712e-01 4.0937317033708105e+00 0 1 0
19 3 6.4141426889689601e+00 8.3507865725903829e-01 7.2090352951729528e+00 0 1 0
20 1 5.7117468722825002e+00 2.4795229496959728e+00 5.6411696805638867e+00 0 1 0
21 2 9.2966209756139158e+00 2.0489295553336109e+00 4.0941868841947056e+00 0 1 0
22 3 9.2760758543545521e+00 2.0546321017932083e+00 7.2091970201782374e+00 0 1 0
23 2 1.5006158483875108e+01 4.5463920378378031e+00 4.1094646168739137e+00 -1 0 0
24 3 1.5022258832422182e+01 4.5497331153684808e+00 7.2294033626786716e+00 -1 0 0
25 1 1.4301169318278927e+01 6.1962321264904983e+00 5.6743012620480604e+00 -1 0 0
26 2 4.2858420747374621e+00 5.7924948485240089e+00 4.0937317425415918e+00 0 0 0
27 3 4.3073004086993310e+00 5.7902245953712850e+00 7.2090353482545328e+00 0 0 0
28 1 1.7159635056879722e+01 7.4390884161283815e+00 5.6651318224115581e+00 -1 0 0
29 2 7.1595393958480509e+00 7.0266044948002753e+00 4.0941869268058229e+00 0 0 0
30 3 7.1648732993738315e+00 7.0059605548310415e+00 7.2091970740030780e+00 0 0 0
31 1 6.4405348876865833e+00 8.6678025444071629e+00 5.6662489102403049e+00 0 0 0
32 2 1.0016598876399973e+01 8.2563925184331666e+00 4.1094647017688537e+00 0 0 0
33 3 1.0011442185927832e+01 8.2407787944321882e+00 7.2294034708184576e+00 0 0 0
34 1 9.2951779597503759e+00 9.9012872165701999e+00 5.6736056601751788e+00 0 0 0
35 2 1.2863635493659633e+01 9.4876663887652306e+00 4.1131561061293400e+00 0 0 0
36 3 1.2857865814611579e+01 9.4950974974076594e+00 7.2346938040319095e+00 0 0 0
37 1 1.2142446814437276e+01 1.1141094591709521e+01 5.6651317625931252e+00 0 0 0
38 2 1.5724333793794500e+01 1.0722477522405244e+01 4.1094646420761229e+00 0 0 0
39 3 1.5713390153988545e+01 1.0734750237737286e+01 7.2294033893585947e+00 0 0 0
40 1 8.2083180465701258e+00 6.1402040434742644e-01 5.6558606379918182e+00 0 1 0
41 1 1.1077442466331942e+01 1.8510067310328011e+00 5.6662488871985301e+00 0 1 0
42 1 1.3942348310452907e+01 3.0991758835341909e+00 5.6736056276623650e+00 -1 0 0
43 1 3.2187705331860270e+00 4.3469524809252658e+00 5.6558605959865824e+00 0 0 0
44 2 6.7911491394233003e+00 3.9208446915789161e+00 4.0791098880960641e+00 0 0 0
45 3 6.7911490992122330e+00 3.9208445924922986e+00 7.1894184762218831e+00 0 0 0
46 1 6.0826289082081555e+00 5.5762951807558201e+00 5.6411697700150389e+00 0 0 0
47 2 9.6646993415590430e+00 5.1546791396271088e+00 4.0937318377204353e+00 0 0 0
48 3 9.6520041280360935e+00 5.1372307148583216e+00 7.2090354756032538e+00 0 0 0
49 1 8.9463585959555871e+00 6.8015612554244740e+00 5.6558607524354176e+00 0 0 0
50 2 1.2516325757428923e+01 6.3963609375542436e+00 4.1131561592892156e+00 0 0 0
51 3 1.2512775170987208e+01 6.3876487864427451e+00 7.2346938739996149e+00 0 0 0
52 1 1.1797896945257762e+01 8.0420111006726991e+00 5.6743012981442300e+00 0 0 0
53 1 1.4648024795473010e+01 9.2870189952757318e+00 5.6743012485226689e+00 0 0 0
54 1 8.5790714695609189e+00 3.7067159448707856e+00 5.6411697949949771e+00 0 0 0
55 2 1.2158264554605742e+01 3.2941946067265402e+00 4.1098591752049467e+00 0 0 0
56 3 1.2149475556359056e+01 3.2917481197571372e+00 7.2296750378552304e+00 0 0 0
57 1 1.1445009253673955e+01 4.9450791667405376e+00 5.6651318909694073e+00 0 0 0
58 5 1.2509312302146707e+01 1.4515585758853840e+00 1.0443461593179293e+01 -1 1 0
59 6 1.2516742016805134e+01 1.4449782963323277e+00 1.3564064542110199e+01 -1 1 0
60 5 1.4651950429308183e+01 6.3876503573092762e+00 1.0444354528527910e+01 -1 0 0
61 6 1.4648399761395968e+01 6.3963625781812325e+00 1.3565892232212251e+01 -1 0 0
62 4 1.5366828758622953e+01 8.0420126911957066e+00 1.2004747153666923e+01 -1 0 0
63 5 1.7153283494668635e+01 8.2407804451465214e+00 1.0449644928609365e+01 -1 0 0
64 6 1.7148126836286551e+01 8.2563942287430407e+00 1.3569583684366185e+01 -1 0 0
65 4 1.7869547904443586e+01 9.9012888596970505e+00 1.2005442744173754e+01 -1 0 0
66 5 6.0705310746012504e+00 1.0107566293741245e+01 1.0443461554212199e+01 0 0 0
67 6 6.0725148994480822e+00 1.0117290712299770e+01 1.3564064510041796e+01 0 0 0
68 4 2.0373576680903454e+01 1.1762665012492089e+01 1.2000341701216406e+01 -1 0 0
69 5 1.7935986092009215e+00 2.0341420608287850e-01 1.0443461639543509e+01 0 1 0
70 6 1.7841849922296062e+00 2.0026998517288969e-01 1.3564064579416723e+01 0 1 0
71 4 2.5048537689028776e+00 1.8510083251889025e+00 1.2012799638428012e+01 0 1 0
72 5 4.3062203771969401e+00 2.0546338106272746e+00 1.0469851465636800e+01 0 1 0
73 6 4.2856752720783593e+00 2.0489312317495463e+00 1.3584861570533352e+01 0 1 0
74 4 1.3222376992035178e+01 3.0991774449593246e+00 1.2005442770696325e+01 -1 0 0
75 5 1.5015249810806388e+01 3.2917496950714518e+00 1.0449373406421802e+01 -1 0 0
76 6 1.5006460702476186e+01 3.2941962263750666e+00 1.3569189249393645e+01 -1 0 0
77 4 1.5719716204924660e+01 4.9450807445499612e+00 1.2013916623498657e+01 -1 0 0
78 5 3.9302923090163562e+00 5.1372323974606937e+00 1.0470013004898940e+01 0 0 0
79 6 3.9175971318123048e+00 5.1546808444821339e+00 1.3585316609894225e+01 0 0 0
80 4 4.6359380258303151e+00 6.8015629174898731e+00 1.2023187727178446e+01 0 0 0
81 5 6.4174232874949748e+00 7.0059623220980534e+00 1.0469851277945200e+01 0 0 0
82 6 6.4227572780547018e+00 7.0266062114293328e+00 1.3584861426049615e+01 0 0 0
83 4 7.1417619265739400e+00 8.6678042153273651e+00 1.2012799492298242e+01 0 0 0
84 5 8.9254971546077293e+00 8.8758412904394905e+00 1.0449373294307321e+01 0 0 0
85 6 8.9320103414878034e+00 8.8822295469886345e+00 1.3569189160576423e+01 0 0 0
86 4 9.6551611406215514e+00 1.0524800716224888e+01 1.2005442784191295e+01 0 0 0
87 5 1.1451335856402666e+01 1.0734751929595628e+01 1.0449645010704034e+01 0 0 0
88 6 1.1440392195682705e+01 1.0722479157189904e+01 1.3569583751070367e+01 0 0 0
89 4 5.3739780759865621e+00 6.1402204166012953e-01 1.2023187847887742e+01 0 1 0
90 5 7.1681533673240638e+00 8.3508039018817104e-01 1.0470013057608375e+01 0 1 0
91 6 7.1593902815025316e+00 8.1536181031634092e-01 1.3585316649513409e+01 0 1 0
92 4 7.8705493698994387e+00 2.4795246392241994e+00 1.2037878689426105e+01 0 1 0
93 5 9.6497981203660874e+00 2.7019429793593934e+00 1.0469851334240671e+01 0 1 0
94 6 9.6650093528093191e+00 2.6870017258197278e+00 1.3584861468335191e+01 0 1 0
95 4 5.0032249057565235e+00 3.7067176128560559e+00 1.2037878720284164e+01 0 0 0
96 5 6.7911472012132155e+00 3.9208463879852902e+00 1.0489629874645168e+01 0 0 0
97 6 6.7911472979718877e+00 3.9208464336932929e+00 1.3599938462306186e+01 0 0 0
98 4 7.4996676302386538e+00 5.5762968861268671e+00 1.2037878604035296e+01 0 0 0
99 5 9.2749961210483853e+00 5.7902263150142517e+00 1.0470012877267553e+01 0 0 0
100 6 9.2964544903038480e+00 5.7924965174566507e+00 1.3585316515061313e+01 0 0 0
101 4 1.0005090656741023e+01 7.4390900440251340e+00 1.2013916518568317e+01 0 0 0
102 5 1.1788275586107630e+01 7.6425175484141246e+00 1.0444354485319854e+01 0 0 0
103 6 1.1797595809952870e+01 7.6412363629423714e+00 1.3565892199163907e+01 0 0 0
104 4 1.2516701056456832e+01 9.2870205841144085e+00 1.2004747169325309e+01 0 0 0
105 5 1.4306860021732962e+01 9.4950991364301736e+00 1.0444354560531940e+01 0 0 0
106 6 1.4301090341960808e+01 9.4876680648315315e+00 1.3565892256103332e+01 0 0 0
107 4 1.5022279150409744e+01 1.1141096230276380e+01 1.2013916635480683e+01 0 0 0
108 5 1.6806338995597297e+01 1.1357676083574191e+01 1.0449373365565092e+01 0 0 0
109 6 1.6808614865253876e+01 1.1348841263828499e+01 1.3569189212256717e+01 0 0 0
110 4 1.0726826304615759e+01 1.2437265210227459e+00 1.2012799552485941e+01 0 1 0
111 4 1.0363525873568376e+01 4.3469541084766199e+00 1.2023187694158066e+01 0 0 0
112 5 1.2142466629093786e+01 4.5497346846970466e+00 1.0449644903135924e+01 0 0 0
113 6 1.2158566880430975e+01 4.5463936514869401e+00 1.3569583669329898e+01 0 0 0
114 4 1.2863556248478069e+01 6.1962336802862765e+00 1.2004747119320697e+01 0 0 0

Velocities

1 -1.4594927313006198e-07 9.8674693298315687e-07 -8.4976797043571396e-05
2 1.1705490889740873e-06 1.7650198957768048e-07 -8.3201468369100182e-05
3 9.2498870055678453e-07 -3.6638470327001609e-07 -8.4976741797167346e-05
4 -4.3503279175924255e-07 -1.1014319868738982e-06 -8.3201418128923946e-05
5 1.5746811061317403e-06 -1.7685964774564391e-06 -9.0129829389262121e-05
6 -1.1426832124021858e-06 -1.7716040029067486e-06 -8.8024662800889757e-05
7 -5.4315357994080606e-07 -9.7541477734984339e-07 -8.4849048864317798e-05
8 -5.6882126609417293e-07 -3.8740387104909578e-07 -8.3211816553476473e-05
9 -1.6806329406369405e-06 -1.1204059615213740e-06 -8.5994081297699357e-05
10 -6.0541443499811145e-07 6.7450906962134179e-07 -8.4114679847246439e-05
11 4.3850476287703467e-07 4.7955832548865818e-09 2.0934126074439632e-05
12 -7.8226655069293469e-07 -6.1719570170728889e-07 -8.4976786284971033e-05
13 -7.3884324068416256e-07 9.2800018048844035e-07 -8.3201476851551902e-05
14 -7.3578212799886108e-10 6.8585999229361551e-10 1.9316628652547082e-05
15 1.8099389193940589e-06 -8.9265941026615001e-07 -8.5994017286762588e-05
16 -2.8209226356956466e-07 -8.5908359830591883e-07 -8.4114631286063613e-05
17 1.0222536730371461e-06 -6.5061943467874926e-07 2.3681358285843071e-05
18 2.5373775724612518e-06 -2.5425307208712160e-08 -9.0111140118275969e-05
19 9.2350959126107640e-07 -1.3564920552354332e-06 -8.8120472057869956e-05
20 1.2946629102264966e-06 -2.4401437417597666e-07 3.3019976265059100e-05
21 7.4346230122410194e-07 2.2505841138701107e-06 -9.0129934626088074e-05
22 2.1047968790321190e-06 -1.0114954291428251e-07 -8.8024759465565316e-05
23 5.4437336823519234e-08 -8.8819927890987829e-07 -8.5952561369915430e-05
24 -1.2615117110247651e-06 -1.1395386974154249e-06 -8.4057127750614935e-05
25 -4.1085068309172609e-07 -8.1029077556986406e-07 2.0465555106661763e-05
26 -1.2934152784840668e-06 -2.1841199445630019e-06 -9.0111157293804655e-05
27 -1.6391443527827021e-06 -1.2081752946914913e-07 -8.8120488691338078e-05
28 -2.8682509052994951e-07 -1.6835838326054575e-06 2.3920469415166505e-05
29 -2.3216089038118592e-06 -4.7879765359052271e-07 -9.0129945374099036e-05
30 -9.6550338242395809e-07 1.8760604386545040e-06 -8.8024787076584229e-05
31 -1.0762573667996356e-06 -5.5954149508775321e-07 2.3681163858175501e-05
32 -7.9888106668799925e-07 3.9757619156324037e-07 -8.5952628719459937e-05
33 -3.5862517728098921e-07 1.6627568361313309e-06 -8.4057222741053153e-05
34 -2.2385142447035841e-07 3.7905879146744505e-07 2.0934131517194731e-05
35 1.1155946888522347e-06 1.9904805886434332e-08 -8.4849045282918474e-05
36 6.1919897496783829e-07 -2.9644483552908181e-07 -8.3211824784158695e-05
37 1.6009923103053885e-06 5.9508743938742238e-07 2.3920560455215343e-05
38 7.4115428029482374e-07 4.9378838293217356e-07 -8.5952589871735407e-05
39 1.6168282051470280e-06 -5.2014221236861797e-07 -8.4057146786130382e-05
40 1.5783004828776310e-06 1.1591053964366984e-06 2.7321890537492064e-05
41 5.1771178065775144e-08 1.2122581590595432e-06 2.3681202685549258e-05
42 -2.1684218563521636e-07 -3.8179417774438933e-07 2.0934175673772753e-05
43 2.1292011441144897e-07 -1.9460143248421383e-06 2.7321941071163360e-05
44 -1.2151018699459311e-09 1.0719169831765110e-09 -9.4127983886631051e-05
45 -1.1515058113561666e-09 1.1701243922381053e-09 -9.2467082920453999e-05
46 -8.6042094461055279e-07 -9.9875528262289793e-07 3.3019843921828318e-05
47 -1.2474337221004723e-06 2.2127341147718468e-06 -9.0111256625904058e-05
48 7.1225801001015061e-07 1.4805999510348518e-06 -8.8120599500914829e-05
49 -1.7934561718472096e-06 7.8902777861716150e-07 2.7321722791981667e-05
50 -5.7569282049674295e-07 9.5867277522407944e-07 -8.4849096127454968e-05
51 -5.3657940169323405e-08 6.8685043787988145e-07 -8.3211880307378615e-05
52 -4.9792639929581998e-07 7.6133712095612369e-07 2.0465508597362022e-05
53 9.0666149235311301e-07 5.0986065877379989e-08 2.0465577375099254e-05
54 -4.3655320812170420e-07 1.2449573556623617e-06 3.3019813830518767e-05
55 -1.3259286943924008e-07 2.0162326451252880e-06 -8.5994104046588121e-05
56 8.8418238603544875e-07 1.8767188865341655e-07 -8.4114705919230204e-05
57 -1.3163512169629044e-06 1.0905792967728215e-06 2.3920377522577132e-05
58 5.6600666301221378e-07 -1.1584186981821066e-06 9.9640298144657727e-05
59 -8.2589333097870438e-07 -3.8026088091636191e-07 1.0170508319608259e-04
60 -4.0334017158244275e-08 5.6397328556932345e-07 9.9743942313494009e-05
61 4.2857778278975265e-07 1.0460992658318554e-06 1.0157921419183682e-04
62 5.5829126249281762e-07 8.0105862926888235e-07 -3.3502820087002652e-05
63 3.2969147497821928e-07 1.6811826272410665e-06 1.0085408106398560e-04
64 5.8904667109967226e-07 4.7969909172326717e-07 1.0289948680642027e-04
65 1.9275690255070408e-07 3.7942994992040901e-07 -3.4114036562437186e-05
66 7.2096375101222339e-07 1.0668115267825684e-06 9.9640322919959749e-05
67 7.4302452450630255e-07 -5.2765600461619986e-07 1.0170512350611219e-04
68 7.2538879272314320e-10 -6.9712741360508461e-10 -3.2365598450756018e-05
69 -1.2837279213003065e-06 8.8449522658390095e-08 9.9640264926837996e-05
70 8.6207106002648698e-08 9.0486466915184300e-07 1.0170506788675546e-04
71 1.0332272450192466e-07 1.3527295390266187e-06 -3.7197389411755185e-05
72 -2.1798586713893355e-06 -4.1668181856567801e-07 1.0600183802892104e-04
73 -9.2328885312130806e-07 2.0239753010793514e-06 1.0787547466078865e-04
74 2.3396968233496345e-07 -3.5706679855602412e-07 -3.4114070915750600e-05
75 -1.0261310430309473e-06 -1.0538517491591176e-07 1.0090092097552659e-04
76 -4.1244074347925366e-08 2.0189520981308710e-06 1.0294586079159039e-04
77 1.5521790063522831e-06 1.1565888317072785e-06 -3.7400092864211737e-05
78 -9.5583750394263947e-07 1.2551335221357890e-06 1.0612669479987598e-04
79 9.2101504873260907e-07 2.3091802434551467e-06 1.0786157097755212e-04
80 1.9931313962157694e-06 7.1486000152743629e-07 -4.1213014673267877e-05
81 7.3169185139569917e-07 2.0955233617651355e-06 1.0600195467276906e-04
82 2.2170544261577006e-06 -2.1305989783396543e-07 1.0787559544879179e-04
83 1.1214959405362604e-06 -7.6624470316886303e-07 -3.7197179660088540e-05
84 4.2423409543084639e-07 9.4074814104013166e-07 1.0090098299267624e-04
85 1.7716538870453413e-06 -9.7425805916860269e-07 1.0294594167084873e-04
86 -4.2455088235901825e-07 -2.4435908058437639e-08 -3.4114091003946707e-05
87 -1.6201504504211679e-06 -5.5764146868149744e-07 1.0085401489487011e-04
88 -7.0927300301741197e-07 2.6780012151856449e-07 1.0289943363008623e-04
89 -1.6151724795166730e-06 1.3669864895443061e-06 -4.1213184611654604e-05
90 -6.0821935877562720e-07 -1.4579834715348468e-06 1.0612663642237555e-04
91 -2.4596198800581863e-06 -3.5961900000993814e-07 1.0786152069725975e-04
92 -1.4734510750688581e-06 -1.5208560095627829e-07 -4.7582744969120673e-05
93 1.4516495401819119e-06 -1.6820454874829656e-06 1.0600191151695284e-04
94 -1.2903889812639263e-06 -1.8142014120343514e-06 1.0787553767093395e-04
95 6.0682580561451845e-07 1.3516787079643223e-06 -4.7582796315484553e-05
96 1.2294770832196783e-09 -1.0848226069971458e-09 1.1169634045792271e-04
97 1.1380415534737429e-09 -1.1543066355588934e-09 1.1261887250877225e-04
98 8.6893441388731959e-07 -1.2017848630451197e-06 -4.7582622992707070e-05
99 1.5675224913654242e-06 1.9965836968239218e-07 1.0612676397827301e-04
100 1.5419809583771221e-06 -1.9528535692108536e-06 1.0786163874701762e-04
101 2.2721705983936869e-07 -1.9228773262525437e-06 -3.7399934669224679e-05
102 5.1102667917919973e-07 -2.4764806631668867e-07 9.9743962805403448e-05
103 6.9425162615364154e-07 -8.9473509723575514e-07 1.0157924089238732e-04
104 -9.7242140227832478e-07 8.1342613260390026e-08 -3.3502837846716830e-05
105 -4.6751894907034031e-07 -3.1943798759163400e-07 9.9743898980714425e-05
106 -1.1194944610786116e-06 -1.5444224149402045e-07 1.0157918742466372e-04
107 -1.7771980243446240e-06 7.6422126978899467e-07 -3.7400104275626160e-05
108 6.0516782597859761e-07 -8.3851512703786420e-07 1.0090092757864040e-04
109 -1.7270654326955319e-06 -1.0478061802847154e-06 1.0294587834842352e-04
110 -1.2226032083231168e-06 -5.8860033739974388e-07 -3.7197260224410755e-05
111 -3.7572243028374741e-07 -2.0839644358132678e-06 -4.1212957638832726e-05
112 1.2937077828674090e-06 -1.1266785522682014e-06 1.0085410649165796e-04
113 1.2356727484329777e-07 -7.5061409446151241e-07 1.0289948881155276e-04
114 4.1627436660588290e-07 -8.8440208086179989e-07 -3.3502768046583905e-05
