LAMMPS data file via write_data, version 30 Mar 2018, timestep = 1865

364 atoms
2 atom types

0.0000000000000000e+00 2.3466903608500001e+01 xlo xhi
0.0000000000000000e+00 2.0322934358300000e+01 ylo yhi
0.0000000000000000e+00 1.0000000000000000e+02 zlo zhi
1.1733452349500000e+01 0.0000000000000000e+00 0.0000000000000000e+00 xy xz yz

Masses

1 12.011
2 12.011

Atoms # atomic

1 1 2.2048747114489164e+01 7.6810541754023673e-02 9.9857267161164259e+01 -1 1 -1
2 1 7.7559850950124720e-01 1.1897540570312377e+00 9.9857267160069640e+01 0 1 -1
3 1 3.1456309365574288e+01 1.6829341639322216e+01 9.9888816826418093e+01 -1 0 -1
4 1 3.3649269226294379e+01 1.7943324780493942e+01 9.9865674692357771e+01 -1 0 -1
5 1 3.3006679573062243e+01 1.9209928141402631e+01 9.9862923073441550e+01 -1 0 -1
6 1 1.2376010661845912e+01 1.9056369145758001e+01 9.9857267161939106e+01 0 0 -1
7 1 1.1733452447471384e+01 2.0322934167242131e+01 9.9854391754216678e+01 0 0 -1
8 1 1.4569798049261049e+01 2.0169458306994805e+01 9.9865674690047641e+01 0 0 -1
9 1 2.1937393625459261e+00 1.1130831064877038e+00 9.9862894849128153e+01 0 1 -1
10 1 5.0297369442806197e+00 9.6064434790903241e-01 9.9888969495695960e+01 0 1 -1
11 1 7.2224228502502434e+00 2.0768764363162591e+00 9.9920354547337027e+01 0 1 -1
12 1 2.9136067710731965e+01 1.3254924843521456e+01 9.9940003980042320e+01 -1 0 -1
13 1 3.1325780285814037e+01 1.4371904277050826e+01 9.9914452218994569e+01 -1 0 -1
14 1 3.0682623086808903e+01 1.5638557318718485e+01 9.9907021306430295e+01 -1 0 -1
15 1 1.0050526516817449e+01 1.5486732095863887e+01 9.9888969501872310e+01 0 0 -1
16 1 3.2874437979748535e+01 1.6753206522813468e+01 9.9878973860677078e+01 -1 0 -1
17 1 1.2243521886678723e+01 1.6600244580325157e+01 9.9873811201852249e+01 0 0 -1
18 1 1.1600541189534439e+01 1.7866558655970682e+01 9.9862894852542979e+01 0 0 -1
19 1 1.4437217743830541e+01 1.7713438749497367e+01 9.9873715289419948e+01 0 0 -1
20 1 1.3794182160481450e+01 1.8979657668410674e+01 9.9862923073443696e+01 0 0 -1
21 1 1.6631015631768310e+01 1.8827290982062095e+01 9.9888816825318827e+01 0 0 -1
22 1 1.5987886305567326e+01 2.0093493963036664e+01 9.9878973857326130e+01 0 0 -1
23 1 1.8824483392697626e+01 1.9942968226557976e+01 9.9914452215239024e+01 0 0 -1
24 1 6.4477263541480552e+00 8.8621975211101889e-01 9.9906576159180844e+01 0 1 -1
25 1 9.2840921007405850e+00 7.3864639189265624e-01 9.9940065154191402e+01 0 1 -1
26 1 8.6404178710096105e+00 2.0046642551427878e+00 9.9935548559030821e+01 0 1 -1
27 1 1.1476909566139643e+01 1.8596336233121051e+00 9.9953351443816345e+01 0 1 -1
28 1 2.6822423187465251e+01 9.6771416745237318e+00 9.9947160912174198e+01 -1 0 -1
29 1 2.9010001706907921e+01 1.0795314666628872e+01 9.9950917278880979e+01 -1 0 -1
30 1 2.8365969089372598e+01 1.2061965084936475e+01 9.9950760043384918e+01 -1 0 -1
31 1 7.7310929732806351e+00 1.1913351485129590e+01 9.9940065158401637e+01 0 0 -1
32 1 3.0554222523873861e+01 1.3179969985285918e+01 9.9931979426357614e+01 -1 0 -1
33 1 9.9208688780154617e+00 1.3029694403174517e+01 9.9920354555814470e+01 0 0 -1
34 1 9.2770781649540748e+00 1.4295929577801930e+01 9.9906576165480601e+01 0 0 -1
35 1 1.2112652893006583e+01 1.4144226494604178e+01 9.9902906454172907e+01 0 0 -1
36 1 1.1468791707334319e+01 1.5410086428791796e+01 9.9886364260150700e+01 0 0 -1
37 1 1.4305771974130110e+01 1.5257937444110210e+01 9.9895948423248967e+01 0 0 -1
38 1 1.3661795311644351e+01 1.6523547578095030e+01 9.9878952985788061e+01 0 0 -1
39 1 1.6499508139593299e+01 1.6371818380165394e+01 9.9902357976455420e+01 0 0 -1
40 1 1.5855421777470124e+01 1.7637338116209705e+01 9.9886615681627021e+01 0 0 -1
41 1 1.8693261732021480e+01 1.7487090227406565e+01 9.9919837780994740e+01 0 0 -1
42 1 1.8049108254133873e+01 1.8752651242298985e+01 9.9907021305208715e+01 0 0 -1
43 1 2.0886672204993939e+01 1.8605111284022925e+01 9.9940003979351786e+01 0 0 -1
44 1 2.0242507646712070e+01 1.9870746817791765e+01 9.9931979423427492e+01 0 0 -1
45 1 2.3079790135360646e+01 1.9725740064899888e+01 9.9950917278517821e+01 0 0 -1
46 1 1.0702146828091992e+01 6.6845530890303462e-01 9.9949070546860071e+01 0 1 -1
47 1 1.3539441939956713e+01 5.2417779672551768e-01 9.9945042489277924e+01 0 1 -1
48 1 1.2895087176465008e+01 1.7897256351495745e+00 9.9949777035949793e+01 0 1 -1
49 1 1.5732761533155776e+01 1.6440148076877266e+00 9.9925296853630840e+01 0 1 -1
50 1 2.6696086448911490e+01 7.2182054630142067e+00 9.9924540708301052e+01 -1 0 -1
51 1 2.6052009328490243e+01 8.4845140343758878e+00 9.9936465843094922e+01 -1 0 -1
52 1 5.4176827076448317e+00 8.3353447741341835e+00 9.9945042487260608e+01 0 0 -1
53 1 2.8240640468353909e+01 9.6020306895954288e+00 9.9949484042950203e+01 -1 0 -1
54 1 7.6054876232340645e+00 9.4538222892235133e+00 9.9953351445090874e+01 0 0 -1
55 1 6.9612782896523813e+00 1.0720375637065453e+01 9.9949070548693456e+01 0 0 -1
56 1 9.7941656081286173e+00 1.0571846901097876e+01 9.9947468266226650e+01 0 0 -1
57 1 9.1493337283048213e+00 1.1837780825744586e+01 9.9935548565555152e+01 0 0 -1
58 1 1.1984595299677054e+01 1.1688135390394413e+01 9.9934922361280172e+01 0 0 -1
59 1 1.1339229546412644e+01 1.2953367896736278e+01 9.9918040188542321e+01 0 0 -1
60 1 1.4176764588392857e+01 1.2802963104879737e+01 9.9925296858923332e+01 0 0 -1
61 1 1.3531098470925620e+01 1.4067674163145192e+01 9.9906619180629647e+01 0 0 -1
62 1 1.6370010594281112e+01 1.3917277255654801e+01 9.9924540715548630e+01 0 0 -1
63 1 1.5724203517411915e+01 1.5181755489779709e+01 9.9906822204926485e+01 0 0 -1
64 1 1.8563587893369881e+01 1.5032282923095298e+01 9.9933430024586272e+01 0 0 -1
65 1 1.7917856936959826e+01 1.6296861264533241e+01 9.9918894331929849e+01 0 0 -1
66 1 2.0756895782269609e+01 1.6149494761145181e+01 9.9946637799524382e+01 0 0 -1
67 1 2.0111531265648463e+01 1.7414419909338513e+01 9.9937173303872413e+01 0 0 -1
68 1 2.2949583395005106e+01 1.7269283978612744e+01 9.9954234717539265e+01 0 0 -1
69 1 2.2304854980195810e+01 1.8534666263862491e+01 9.9950760043389622e+01 0 0 -1
70 1 2.5141945576617331e+01 1.8390328052986231e+01 9.9947160912963113e+01 0 0 -1
71 1 2.4497884998042476e+01 1.9656095741487714e+01 9.9949484044016998e+01 0 0 -1
72 1 2.7334615198767708e+01 1.9510385381243701e+01 9.9924540710775148e+01 0 0 -1
73 1 1.4957506701789727e+01 4.5342377677523499e-01 9.9931793644038052e+01 0 1 -1
74 1 1.7794328016113596e+01 3.0480401260740680e-01 9.9895948418664020e+01 0 1 -1
75 1 1.7150866502357314e+01 1.5708225804464486e+00 9.9906619176035250e+01 0 1 -1
76 1 1.9987925206205649e+01 1.4196114254490115e+00 9.9873811198541460e+01 0 1 -1
77 1 2.4374910491162822e+01 3.6462769429190480e+00 9.9873715285468123e+01 -1 0 -1
78 1 3.1002563001481653e+00 4.7601922876132017e+00 9.9895948415223671e+01 0 0 -1
79 1 2.5923919689755987e+01 6.0266810191967437e+00 9.9906822198291351e+01 -1 0 -1
80 1 5.2908301636232249e+00 5.8759558336202105e+00 9.9925296848938885e+01 0 0 -1
81 1 4.6473754833789904e+00 7.1426416993885899e+00 9.9931793640564635e+01 0 0 -1
82 1 7.4798983255787812e+00 6.9940793457628487e+00 9.9949604491486937e+01 0 0 -1
83 1 6.8358566671419734e+00 8.2605984860549757e+00 9.9949777034259213e+01 0 0 -1
84 1 9.6689210907827885e+00 8.1132762746130442e+00 9.9959611927662706e+01 0 0 -1
85 1 9.0237508699046067e+00 9.3790937194378277e+00 9.9953377803586875e+01 0 0 -1
86 1 1.1859036601750578e+01 9.2315276370915580e+00 9.9956915506646482e+01 0 0 -1
87 1 1.1212581874461634e+01 1.0496372066509929e+01 9.9945784060377221e+01 0 0 -1
88 1 1.4050553839551066e+01 1.0348112765805288e+01 9.9949604498918859e+01 0 0 -1
89 1 1.3403188936877921e+01 1.1612086430541650e+01 9.9936020551918489e+01 0 0 -1
90 1 1.6243231645758637e+01 1.1463411173260296e+01 9.9945042493668822e+01 0 0 -1
91 1 1.5595474074638332e+01 1.2726868313495121e+01 9.9931793648506016e+01 0 0 -1
92 1 1.8436343478270725e+01 1.2578398381232496e+01 9.9947160916623574e+01 0 0 -1
93 1 1.7788704549985972e+01 1.3841910159447361e+01 9.9936465848163081e+01 0 0 -1
94 1 2.0629141622620967e+01 1.3694695323354429e+01 9.9954228284930409e+01 0 0 -1
95 1 1.9982192323004078e+01 1.4958762430090513e+01 9.9947483864429572e+01 0 0 -1
96 1 2.2821147533537928e+01 1.4813095734126282e+01 9.9959428879861960e+01 0 0 -1
97 1 2.2175364733395330e+01 1.6077996910222769e+01 9.9956927726619895e+01 0 0 -1
98 1 2.5012287976303703e+01 1.5933160734648951e+01 9.9954228282397267e+01 0 0 -1
99 1 2.4367839427835115e+01 1.7198879567553064e+01 9.9955028113726911e+01 0 0 -1
100 1 2.7203449753231244e+01 1.7053188937643714e+01 9.9933430020845492e+01 0 0 -1
101 1 2.6559998347541285e+01 1.8319443968880808e+01 9.9936465844182052e+01 0 0 -1
102 1 2.9395561432179214e+01 1.8170966721160443e+01 9.9902357973278853e+01 0 0 -1
103 1 2.8752589028221358e+01 1.9437431640569546e+01 9.9906822200843010e+01 0 0 -1
104 1 3.1588584007766219e+01 1.9286152408207723e+01 9.9873715287825675e+01 0 0 -1
105 1 1.9212366873116821e+01 2.2969913441531367e-01 9.9878952982845774e+01 0 1 -1
106 1 2.1406075711693571e+01 1.3432920482981578e+00 9.9862894850654072e+01 0 1 -1
107 1 2.3599850505405840e+01 2.4562823394919948e+00 9.9862923071653398e+01 -1 0 -1
108 1 2.9689091908790273e+00 2.3030777401356115e+00 9.9873811195648031e+01 0 0 -1
109 1 2.3261940694349996e+00 3.5696870738268029e+00 9.9878952979754231e+01 0 0 -1
110 1 5.1613177810390010e+00 3.4177509708827243e+00 9.9902906444318120e+01 0 0 -1
111 1 4.5183912926089471e+00 4.6844370605326127e+00 9.9906619171215453e+01 0 0 -1
112 1 7.3523838978579850e+00 4.5348954551760041e+00 9.9934922351212350e+01 0 0 -1
113 1 6.7089474498027917e+00 5.8014580731574910e+00 9.9936020542524815e+01 0 0 -1
114 1 9.5426479961040584e+00 5.6544623650582970e+00 9.9956915500938806e+01 0 0 -1
115 1 8.8981237209812196e+00 6.9204580798957025e+00 9.9954970568939871e+01 0 0 -1
116 1 1.1733452094623040e+01 6.7743112432290920e+00 9.9963435157516074e+01 0 0 -1
117 1 1.1087347577102420e+01 8.0393234287487640e+00 9.9959332000592028e+01 0 0 -1
118 1 1.3925295398141984e+01 7.8927650338875406e+00 9.9959611929809043e+01 0 0 -1
119 1 1.3277683201138755e+01 9.1567042162191825e+00 9.9954970574157414e+01 0 0 -1
120 1 1.6117959097340211e+01 9.0094778343568045e+00 9.9953351447689272e+01 0 0 -1
121 1 1.5469412427647722e+01 1.0272609674404883e+01 9.9949777039782447e+01 0 0 -1
122 1 1.8310920397593435e+01 1.0124813369352177e+01 9.9950917281286848e+01 0 0 -1
123 1 1.7662186761321191e+01 1.1387741717688886e+01 9.9949484047254245e+01 0 0 -1
124 1 2.0503377180160335e+01 1.1240279126017990e+01 9.9954234719135002e+01 0 0 -1
125 1 1.9855221205318969e+01 1.2503727104696008e+01 9.9955028116232754e+01 0 0 -1
126 1 2.2694716555764572e+01 1.2357144594704845e+01 9.9959428880126197e+01 0 0 -1
127 1 2.2047835792440981e+01 1.3621553170176721e+01 9.9961645708323658e+01 0 0 -1
128 1 2.4884848152818989e+01 1.3475627782164926e+01 9.9959428879056958e+01 0 0 -1
129 1 2.4239597872117926e+01 1.4741106660690438e+01 9.9961645707043090e+01 0 0 -1
130 1 2.7074329603525712e+01 1.4595122729687418e+01 9.9946637797557841e+01 0 0 -1
131 1 2.6430476863208018e+01 1.5861401751328469e+01 9.9947483861540036e+01 0 0 -1
132 1 2.9264538343759511e+01 1.5713484510042765e+01 9.9919837780001345e+01 0 0 -1
133 1 2.8621472201560582e+01 1.6980119217813602e+01 9.9918894329306511e+01 0 0 -1
134 1 3.0813576855374905e+01 1.8096002046543067e+01 9.9886615680440102e+01 0 0 -1
135 1 4.3869814878757047e+00 2.2272208699528386e+00 9.9886364252692061e+01 0 0 -1
136 1 6.5793432483256229e+00 3.3433760717171750e+00 9.9918040178710811e+01 0 0 -1
137 1 9.4143328931750769e+00 3.1960719918710914e+00 9.9947468259673784e+01 0 0 -1
138 1 8.7704879212875451e+00 4.4621939438523759e+00 9.9945784052678903e+01 0 0 -1
139 1 1.1606139808679529e+01 4.3168924288885835e+00 9.9959611926361490e+01 0 0 -1
140 1 1.0960971642520002e+01 5.5822622406118514e+00 9.9959331998290750e+01 0 0 -1
141 1 1.3798671690324147e+01 5.4369437411442920e+00 9.9956915504331917e+01 0 0 -1
142 1 1.3152037052872645e+01 6.7013481184324197e+00 9.9959332000623490e+01 0 0 -1
143 1 1.5991857780083231e+01 6.5550148420569414e+00 9.9947468264514399e+01 0 0 -1
144 1 1.5344110574970779e+01 7.8185901518878484e+00 9.9953377804663333e+01 0 0 -1
145 1 1.8185171217653973e+01 7.6709358666107974e+00 9.9940065157464772e+01 0 0 -1
146 1 1.7536931145456727e+01 8.9341028506023399e+00 9.9949070550033838e+01 0 0 -1
147 1 2.0377972327632829e+01 8.7858319821607331e+00 9.9940003980429424e+01 0 0 -1
148 1 1.9729888159757632e+01 1.0049236808406866e+01 9.9950760045004500e+01 0 0 -1
149 1 2.2569486854488819e+01 9.9012506171487722e+00 9.9946637798615640e+01 0 0 -1
150 1 2.1922171374178035e+01 1.1165429703174297e+01 9.9956927726984063e+01 0 0 -1
151 1 2.4759282642826037e+01 1.1018012049364611e+01 9.9954228282741781e+01 0 0 -1
152 1 2.4113278558251061e+01 1.2283208331496541e+01 9.9961645707362820e+01 0 0 -1
153 1 2.6947751670583717e+01 1.2136305003559441e+01 9.9954234717018736e+01 0 0 -1
154 1 2.6303176113303355e+01 1.3402441542529086e+01 9.9956927725420826e+01 0 0 -1
155 1 2.8492469178923749e+01 1.4521562261109448e+01 9.9937173302960829e+01 0 0 -1
156 1 1.0832494823315463e+01 3.1252499140608760e+00 9.9953377800627351e+01 0 0 -1
157 1 1.3669904117291567e+01 2.9807416228585932e+00 9.9949604494604742e+01 0 0 -1
158 1 1.3024549344008552e+01 4.2457714908539312e+00 9.9954970571012822e+01 0 0 -1
159 1 1.5863377096291181e+01 4.0999028941851456e+00 9.9934922356706181e+01 0 0 -1
160 1 1.5217286471363234e+01 5.3643677843356503e+00 9.9945784057729611e+01 0 0 -1
161 1 1.8057064556340990e+01 5.2163629076244966e+00 9.9920354552132920e+01 0 0 -1
162 1 1.7410604675190996e+01 6.4804887106689026e+00 9.9935548563512015e+01 0 0 -1
163 1 2.0250448560173876e+01 6.3309955977344572e+00 9.9914452217001553e+01 0 0 -1
164 1 1.9603982048059862e+01 7.5951513444109402e+00 9.9931979425587130e+01 0 0 -1
165 1 2.2442912169295511e+01 7.4452933669781469e+00 9.9919837779490678e+01 0 0 -1
166 1 2.1796711777312588e+01 8.7098859936936037e+00 9.9937173303621833e+01 0 0 -1
167 1 2.4633674600528888e+01 8.5603962474895319e+00 9.9933430020705032e+01 0 0 -1
168 1 2.3988043042636960e+01 9.8257039746865367e+00 9.9947483862217922e+01 0 0 -1
169 1 2.6177651585939536e+01 1.0943261485266786e+01 9.9955028113423239e+01 0 0 -1
170 1 1.5088219888018907e+01 2.9093892833869970e+00 9.9936020547448194e+01 0 0 -1
171 1 1.7926385606660659e+01 2.7609562729950161e+00 9.9902906449375166e+01 0 0 -1
172 1 1.7281783463453941e+01 4.0261898171175643e+00 9.9918040184416256e+01 0 0 -1
173 1 2.0120092827163287e+01 3.8755572996203704e+00 9.9888969498345986e+01 0 0 -1
174 1 1.9475551744026472e+01 5.1407844755455248e+00 9.9906576162744301e+01 0 0 -1
175 1 2.2313387247518278e+01 4.9892354848934648e+00 9.9888816824498775e+01 0 0 -1
176 1 2.1668980893965276e+01 6.2546595915977408e+00 9.9907021305195713e+01 0 0 -1
177 1 2.4505642669957211e+01 6.1030830036715500e+00 9.9902357971602882e+01 0 0 -1
178 1 2.3861383077890256e+01 7.3688876678513857e+00 9.9918894328714401e+01 0 0 -1
179 1 1.9344583082899526e+01 2.6856264918174153e+00 9.9886364256455636e+01 0 0 -1
180 1 2.2181644964886644e+01 2.5330850142529937e+00 9.9865674690136018e+01 0 0 -1
181 1 2.1538387926802017e+01 3.7991676592961139e+00 9.9878973858294003e+01 0 0 -1
182 1 2.3731713590330102e+01 4.9125280049470677e+00 9.9886615678737499e+01 0 0 -1
183 2 3.3782199490281990e+01 2.0246123395550573e+01 3.4427328388632819e+00 -1 0 0
184 2 2.4109462024026364e+01 1.2665648045300131e+00 3.4427328400169919e+00 -1 1 0
185 2 2.9790516651592846e+01 1.5106571040940834e+01 3.3796454472354145e+00 -1 0 0
186 2 3.1853544996497956e+01 1.6447376641279739e+01 3.4110304996745868e+00 -1 0 0
187 2 1.0448193604236215e+01 1.7789848934146178e+01 3.4343253073644462e+00 0 0 0
188 2 3.3139528018609163e+01 1.8979641933578144e+01 3.4371051484642008e+00 -1 0 0
189 2 1.2509050819088067e+01 1.9133179892045224e+01 3.4427328378097992e+00 0 0 0
190 2 1.1733452471748331e+01 2.0322934160183149e+01 3.4456082457709405e+00 0 0 0
191 2 2.8363457419087910e+00 1.5347563205798148e-01 3.4343253094118524e+00 0 1 0
192 2 2.0607299026459662e+00 1.3432763135147070e+00 3.4370769286236760e+00 0 1 0
193 2 4.8975633946458714e+00 1.4956429706056988e+00 3.4111831767342853e+00 0 1 0
194 2 2.7851410992461631e+01 1.1313456109748078e+01 3.3466485544109728e+00 -1 0 0
195 2 2.9918623181985733e+01 1.2651998078872504e+01 3.3599348416869343e+00 -1 0 0
196 2 2.9144056698136026e+01 1.3842445264704539e+01 3.3644514363967670e+00 -1 0 0
197 2 8.5169969913606494e+00 1.3991938348049141e+01 3.3855477798794249e+00 0 0 0
198 2 3.1209003842790889e+01 1.5182149506511326e+01 3.3934238356563942e+00 -1 0 0
199 2 1.0579935746096091e+01 1.5333698466043103e+01 3.4111831708717282e+00 0 0 0
200 2 9.8049364883602905e+00 1.6523766313674109e+01 3.4210261388370760e+00 0 0 0
201 2 1.2641459066416857e+01 1.6676656998590232e+01 3.4262847088679647e+00 0 0 0
202 2 1.1866399133524263e+01 1.7866651640358718e+01 3.4370769250726991e+00 0 0 0
203 2 1.4702361450216912e+01 1.8019856209432351e+01 3.4261887986899504e+00 0 0 0
204 2 1.3927191683370541e+01 1.9209850872835723e+01 3.4371051481188770e+00 0 0 0
205 2 1.6763189267872594e+01 1.9362289599023615e+01 3.4110305002683519e+00 0 0 0
206 2 4.2544339914137845e+00 2.2944000874563447e-01 3.4210261419363182e+00 0 1 0
207 2 7.0910310995280508e+00 3.7996571701928228e-01 3.3855477835500234e+00 0 1 0
208 2 6.3156560124904537e+00 1.5702827427506414e+00 3.3929786967694491e+00 0 1 0
209 2 9.1532199744981497e+00 1.7178226716182783e+00 3.3599960216023526e+00 0 1 0
210 2 2.5910216284213334e+01 7.5199708342262221e+00 3.3747031491139707e+00 -1 0 0
211 2 2.7976683409668354e+01 8.8595227758173518e+00 3.3549575115715955e+00 -1 0 0
212 2 2.7202864252675845e+01 1.0050324299272738e+01 3.3502229641288994e+00 -1 0 0
213 2 6.5774686215260516e+00 1.0198120574519399e+01 3.3490827197884485e+00 0 0 0
214 2 2.9270383037252333e+01 1.1388831127675227e+01 3.3509294505253173e+00 -1 0 0
215 2 8.6445206255902391e+00 1.1537101967613808e+01 3.3599960169539886e+00 0 0 0
216 2 7.8705304046395295e+00 1.2727782633651323e+01 3.3680205721743626e+00 0 0 0
217 2 1.0709460536265091e+01 1.2877640580413630e+01 3.3801622151150861e+00 0 0 0
218 2 9.9355293189662905e+00 1.4068274386001798e+01 3.3929786904994486e+00 0 0 0
219 2 1.2772191113435635e+01 1.4219850943079260e+01 3.3976420209839064e+00 0 0 0
220 2 1.1998262092863854e+01 1.5410405976837570e+01 3.4133843155396271e+00 0 0 0
221 2 1.4833708421104111e+01 1.5562741661600700e+01 3.4040515759956200e+00 0 0 0
222 2 1.4059646251731179e+01 1.6753246899247923e+01 3.4210470135545323e+00 0 0 0
223 2 1.6894769979947114e+01 1.6905182971232151e+01 3.3970935466381622e+00 0 0 0
224 2 1.6120433740887762e+01 1.8095713111041288e+01 3.4136357410530649e+00 0 0 0
225 2 1.8955875118724862e+01 1.8246057514329664e+01 3.3796454458693725e+00 0 0 0
226 2 1.8181178688067334e+01 1.9436714224245364e+01 3.3934238367206304e+00 0 0 0
227 2 2.1017544436074445e+01 1.9584287551771769e+01 3.3599348425856079e+00 0 0 0
228 2 8.5090553423463611e+00 4.5218715718156222e-01 3.3680205757587101e+00 0 1 0
229 2 1.1346337853460192e+01 5.9719388094788250e-01 3.3490827203801499e+00 0 1 0
230 2 1.0571402753092045e+01 1.7882677218198491e+00 3.3492399569579709e+00 0 1 0
231 2 1.3408493352739454e+01 1.9326059010677130e+00 3.3528390854869308e+00 0 1 0
232 2 2.3976973378602104e+01 3.7226893560681353e+00 3.4261888038695174e+00 -1 0 0
233 2 2.6039223538607565e+01 5.0649965062717257e+00 3.4040515846077124e+00 -1 0 0
234 2 2.5264550097604975e+01 6.2552598119280010e+00 3.3933808271362915e+00 -1 0 0
235 2 4.6365586129895116e+00 6.4056566878676513e+00 3.3754592923256408e+00 0 0 0
236 2 2.7328925763611213e+01 7.5960656592714111e+00 3.3682063584830733e+00 -1 0 0
237 2 6.7028915771996083e+00 7.7445355639326756e+00 3.3528390879467787e+00 0 0 0
238 2 5.9287349141590511e+00 8.9351922640421364e+00 3.3505159561726576e+00 0 0 0
239 2 8.7699253436926519e+00 9.0826548262927727e+00 3.3457652809551810e+00 0 0 0
240 2 7.9964363856790470e+00 1.0273697167365242e+01 3.3492399542819782e+00 0 0 0
241 2 1.0836035090697379e+01 1.0421683328465939e+01 3.3533621976031025e+00 0 0 0
242 2 1.0063260070660405e+01 1.1613047988348381e+01 3.3628266924154349e+00 0 0 0
243 2 1.2900222911338851e+01 1.1762537704286295e+01 3.3665699727462819e+00 0 0 0
244 2 1.2127931446676744e+01 1.2954046310251490e+01 3.3811056648287123e+00 0 0 0
245 2 1.4962634829222520e+01 1.3104728483246541e+01 3.3754592830534653e+00 0 0 0
246 2 1.4190468128215503e+01 1.4296252957868585e+01 3.3931777933818972e+00 0 0 0
247 2 1.7024282227454123e+01 1.4446978111916216e+01 3.3747031410602779e+00 0 0 0
248 2 1.6251843417489756e+01 1.5638496917817873e+01 3.3933808193075921e+00 0 0 0
249 2 1.9085836031724405e+01 1.5788038489343471e+01 3.3650776393396158e+00 0 0 0
250 2 1.8312795442822235e+01 1.6979557901093386e+01 3.3819598126172101e+00 0 0 0
251 2 2.1147785105048325e+01 1.7126861949876709e+01 3.3525317339616190e+00 0 0 0
252 2 2.0373870139679582e+01 1.8318269725619501e+01 3.3644514355049124e+00 0 0 0
253 2 2.3210361841846176e+01 1.8463300326220509e+01 3.3466485535011992e+00 0 0 0
254 2 2.2435599172231846e+01 1.9654478662322774e+01 3.3509294510416128e+00 0 0 0
255 2 2.5272894286175116e+01 1.9798756141885164e+01 3.3549575095784103e+00 0 0 0
256 2 1.2764432701461947e+01 6.6683823377381868e-01 3.3505159549969123e+00 0 1 0
257 2 1.5601162928160571e+01 8.1254856475369197e-01 3.3754592880334924e+00 0 1 0
258 2 1.4826546133323271e+01 2.0034900141379453e+00 3.3635341540568344e+00 0 1 0
259 2 2.3333992612344055e+01 2.4563753229240772e+00 3.4371051507733044e+00 -1 0 0
260 2 2.7037655576745334e+00 2.6094951962429036e+00 3.4262847152571592e+00 0 0 0
261 2 2.5395246797859517e+01 3.7993863909094432e+00 3.4210470203296741e+00 -1 0 0
262 2 4.7660560370194958e+00 3.9511155602632790e+00 3.3976420303038526e+00 0 0 0
263 2 3.9907514655263077e+00 5.1411784929930073e+00 3.3931778026758903e+00 0 0 0
264 2 6.8301358562511343e+00 5.2906510306917296e+00 3.3665699817519776e+00 0 0 0
265 2 6.0552525779688775e+00 6.4810238159247682e+00 3.3635341582465257e+00 0 0 0
266 2 8.8956896531810266e+00 6.6282386210468163e+00 3.3457717181068700e+00 0 0 0
267 2 8.1217692943212043e+00 7.8192068746197378e+00 3.3449718863685827e+00 0 0 0
268 2 1.0961264666872051e+01 7.9657893562670292e+00 3.3405711187634397e+00 0 0 0
269 2 1.0188719539983598e+01 9.1575042810723133e+00 3.3430722714206476e+00 0 0 0
270 2 1.3025830816772892e+01 9.3049219038610307e+00 3.3457717131735198e+00 0 0 0
271 2 1.2254591279026378e+01 1.0497230000772188e+01 3.3525161329144173e+00 0 0 0
272 2 1.5088971436998728e+01 1.0645792269476219e+01 3.3528390819825455e+00 0 0 0
273 2 1.4318557633718587e+01 1.1838419946444478e+01 3.3635341498381441e+00 0 0 0
274 2 1.7151134639835998e+01 1.1987589174594566e+01 3.3549575059315724e+00 0 0 0
275 2 1.6380827473829914e+01 1.3180292275810798e+01 3.3682063507394404e+00 0 0 0
276 2 1.9213350327969941e+01 1.3328854596383756e+01 3.3503955012564868e+00 0 0 0
277 2 1.8442399511743091e+01 1.4521475901569085e+01 3.3639794482590801e+00 0 0 0
278 2 2.1276100070447050e+01 1.4668471577568567e+01 3.3430844931519732e+00 0 0 0
279 2 2.0503940059249956e+01 1.5860740028725955e+01 3.3542159398431610e+00 0 0 0
280 2 2.3339591953990592e+01 1.6006041510790990e+01 3.3403880707014535e+00 0 0 0
281 2 2.2565947027201815e+01 1.7197684057365787e+01 3.3466221955500295e+00 0 0 0
282 2 2.5403356341040656e+01 1.7342192318836204e+01 3.3503955048755385e+00 0 0 0
283 2 2.4628539457665731e+01 1.8533208344369232e+01 3.3502229630043416e+00 0 0 0
284 2 2.7466213817561915e+01 1.8678919141310828e+01 3.3747031461744252e+00 0 0 0
285 2 2.6690959054294648e+01 1.9869510190528093e+01 3.3682063553894412e+00 0 0 0
286 2 2.9527780376089169e+01 2.0018129923777593e+01 3.4040515808468044e+00 0 0 0
287 2 1.7019136740893885e+01 8.8550233619397622e-01 3.3931777981116373e+00 0 1 0
288 2 1.9855131749851171e+01 1.0367815401097065e+00 3.4262847125515519e+00 0 1 0
289 2 4.1219696043989522e+00 2.6855958603550127e+00 3.4133843229509924e+00 0 0 0
290 2 6.9598095584952722e+00 2.8358437177757105e+00 3.3801622232494428e+00 0 0 0
291 2 6.1844048236343721e+00 4.0260727101919311e+00 3.3811056743029964e+00 0 0 0
292 2 9.0234436917436938e+00 4.1734391861676619e+00 3.3533622039468960e+00 0 0 0
293 2 8.2487402850534401e+00 5.3641715567604669e+00 3.3525161402207737e+00 0 0 0
294 2 1.1087695503662220e+01 5.5098382222054001e+00 3.3405711205250035e+00 0 0 0
295 2 1.0314383829650943e+01 6.7013808056133666e+00 3.3383542925493033e+00 0 0 0
296 2 1.3151396196145337e+01 6.8473061615299811e+00 3.3405711185457370e+00 0 0 0
297 2 1.2379826657009188e+01 8.0397256509910981e+00 3.3383542900625756e+00 0 0 0
298 2 1.5214299794356485e+01 8.1866289483229497e+00 3.3457652797340525e+00 0 0 0
299 2 1.4444199765297629e+01 9.3796724967876504e+00 3.3449718821420067e+00 0 0 0
300 2 1.7276549892847854e+01 9.5276192821022754e+00 3.3490827183785576e+00 0 0 0
301 2 1.6507188717200773e+01 1.0720903282221805e+01 3.3505159518494296e+00 0 0 0
302 2 1.9338939494178117e+01 1.0869111650493466e+01 3.3466485526688134e+00 0 0 0
303 2 1.8569308594153675e+01 1.2062335489470417e+01 3.3502229601271720e+00 0 0 0
304 2 2.1402373034726782e+01 1.2209657668336686e+01 3.3403880703453006e+00 0 0 0
305 2 2.0631575723451348e+01 1.3402475890759522e+01 3.3450294257866782e+00 0 0 0
306 2 2.3466904110175960e+01 1.3548622695940006e+01 3.3365648414272302e+00 0 0 0
307 2 2.2694423717966750e+01 1.4740671733226412e+01 3.3406679984291565e+00 0 0 0
308 2 2.5532123775202145e+01 1.4885990202723550e+01 3.3430844958909902e+00 0 0 0
309 2 2.4758001492554563e+01 1.6077162478772781e+01 3.3450294282274631e+00 0 0 0
310 2 2.7596829253269838e+01 1.6223031044757978e+01 3.3650776437940371e+00 0 0 0
311 2 2.6821672100376272e+01 1.7413544689804695e+01 3.3639794529124973e+00 0 0 0
312 2 2.9659837842682911e+01 1.7561977672161962e+01 3.3970935505303945e+00 0 0 0
313 2 2.8884318795635281e+01 1.8752111400532552e+01 3.3933808240633190e+00 0 0 0
314 2 3.1721377502258488e+01 1.8903322524969457e+01 3.4261888007584931e+00 0 0 0
315 2 3.0945819235505887e+01 2.0093234833418396e+01 3.4210470169392484e+00 0 0 0
316 2 2.1273227299241537e+01 1.1130058386196464e+00 3.4370769274146515e+00 0 1 0
317 2 8.3780791029268933e+00 2.9085140662513553e+00 3.3628266993841671e+00 0 0 0
318 2 1.1216131232716089e+01 3.0536499647608624e+00 3.3457652827379611e+00 0 0 0
319 2 1.0441912628494531e+01 4.2449370693286408e+00 3.3430722750452952e+00 0 0 0
320 2 1.3278835897270849e+01 4.3897732154500604e+00 3.3457717157949673e+00 0 0 0
321 2 1.2506145848269956e+01 5.5818273263657696e+00 3.3383542915327662e+00 0 0 0
322 2 1.5340877583079536e+01 5.7278112243064720e+00 3.3533621998883296e+00 0 0 0
323 2 1.4569724160926089e+01 6.9204924297961883e+00 3.3430722716429266e+00 0 0 0
324 2 1.7402615768630000e+01 7.0680090956883248e+00 3.3599960191766352e+00 0 0 0
325 2 1.6632517199948836e+01 8.2609688947073909e+00 3.3492399541453306e+00 0 0 0
326 2 1.9464544717962756e+01 8.4095824631316347e+00 3.3599348431605280e+00 0 0 0
327 2 1.8694730091044132e+01 9.6025583384160669e+00 3.3509294500599864e+00 0 0 0
328 2 2.1527617416011083e+01 9.7510870420278213e+00 3.3525317366277516e+00 0 0 0
329 2 2.0757202739328626e+01 1.0943840249319770e+01 3.3466221958165780e+00 0 0 0
330 2 2.3592488485481553e+01 1.1091406302055653e+01 3.3430844960773412e+00 0 0 0
331 2 2.2820799517241383e+01 1.2283610543910735e+01 3.3406679991555492e+00 0 0 0
332 2 2.5658747352607858e+01 1.2430168908740317e+01 3.3403880720468129e+00 0 0 0
333 2 2.4885489065827631e+01 1.3621585853263676e+01 3.3406679997941029e+00 0 0 0
334 2 2.7725309808059599e+01 1.3767919100190136e+01 3.3525317362586722e+00 0 0 0
335 2 2.6950738558472125e+01 1.4958566193648787e+01 3.3542159431494136e+00 0 0 0
336 2 2.9015235622466037e+01 1.6296744154233263e+01 3.3819598158671083e+00 0 0 0
337 2 3.1078035305821754e+01 1.7637307486084847e+01 3.4136357428492485e+00 0 0 0
338 2 1.2634387274193530e+01 3.1240544039796925e+00 3.3449718852547683e+00 0 0 0
339 2 1.5469997603813885e+01 3.2697450008107483e+00 3.3665699769728934e+00 0 0 0
340 2 1.4697024768016378e+01 4.4615322284418619e+00 3.3525161358435853e+00 0 0 0
341 2 1.7531086277369308e+01 4.6094494392088965e+00 3.3801622192685272e+00 0 0 0
342 2 1.6759017169304027e+01 5.8013717209762614e+00 3.3628266952762500e+00 0 0 0
343 2 1.9592328278354348e+01 5.9510296714418942e+00 3.3855477833625498e+00 0 0 0
344 2 1.8820770582629805e+01 7.1429639822062034e+00 3.3680205745594356e+00 0 0 0
345 2 2.1654320560203580e+01 7.2932395335729954e+00 3.3796454497286939e+00 0 0 0
346 2 2.0882785461314061e+01 8.4851531510709570e+00 3.3644514375327139e+00 0 0 0
347 2 2.3718047055390709e+01 8.6347985566693097e+00 3.3650776451871742e+00 0 0 0
348 2 2.2946033688469022e+01 9.8265619057615794e+00 3.3542159434940375e+00 0 0 0
349 2 2.5784005660290205e+01 9.9748211761354355e+00 3.3503955061460542e+00 0 0 0
350 2 2.5011135082496867e+01 1.1166229755740384e+01 3.3450294288825075e+00 0 0 0
351 2 2.7077562528075177e+01 1.2504343823486336e+01 3.3466221968795935e+00 0 0 0
352 2 1.7662109218412496e+01 2.1519672296199945e+00 3.3976420257012578e+00 0 0 0
353 2 1.6888020057297854e+01 3.3428147495865193e+00 3.3811056691057488e+00 0 0 0
354 2 1.9722857232416043e+01 3.4935922963273263e+00 3.4111831751111503e+00 0 0 0
355 2 1.8949171003975330e+01 4.6843766605595771e+00 3.3929786941520317e+00 0 0 0
356 2 2.1783978071655643e+01 4.8362018534927822e+00 3.4110305029914607e+00 0 0 0
357 2 2.1010529778420235e+01 6.0270043997305249e+00 3.3934238385642490e+00 0 0 0
358 2 2.3846104508069587e+01 6.1787074502138433e+00 3.3970935534578457e+00 0 0 0
359 2 2.3072681225346933e+01 7.3695660711221915e+00 3.3819598179318984e+00 0 0 0
360 2 2.5136640684780161e+01 8.7108475474176998e+00 3.3639794544257238e+00 0 0 0
361 2 1.9080124655018579e+01 2.2269319346781606e+00 3.4133843196496572e+00 0 0 0
362 2 2.1915817026190961e+01 2.3796091681620628e+00 3.4343253102267761e+00 0 0 0
363 2 2.1140985846336765e+01 3.5697274441381066e+00 3.4210261421788490e+00 0 0 0
364 2 2.3202243248580661e+01 4.9128475514828809e+00 3.4136357456802400e+00 0 0 0

Velocities
