LAMMPS data file via write_data, version 30 Mar 2018, timestep = 836

114 atoms
6 atom types

0.0000000000000000e+00 1.3582328630299999e+01 xlo xhi
0.0000000000000000e+00 1.1762641272200000e+01 ylo yhi
0.0000000000000000e+00 1.0000000000000000e+02 zlo zhi
6.7911649460000003e+00 0.0000000000000000e+00 0.0000000000000000e+00 xy xz yz

Masses

1 95.94
2 32.066
3 32.066
4 95.94
5 32.066
6 32.066

Atoms # atomic

1 2 1.1786929627087062e+01 2.1562831067179553e-01 4.0843123220930142e+00 -1 1 0
2 3 1.1803923028114212e+01 2.2168440447380727e-01 7.1965051761136563e+00 -1 1 0
3 2 1.0844386021854648e+00 1.4470472991193677e+00 4.0843124043634740e+00 0 1 0
4 3 1.0811866448096352e+00 1.4293024241531451e+00 7.1965052831267338e+00 0 1 0
5 2 3.9444823849155481e+00 2.6812956503269967e+00 4.1064351056999424e+00 0 1 0
6 3 3.9351521825459344e+00 2.6626826191711226e+00 7.2255076989353713e+00 0 1 0
7 2 1.5363276338523125e+01 7.6394588814005706e+00 4.1189692464021066e+00 -1 0 0
8 3 1.5369663479831102e+01 7.6415769198126098e+00 7.2399425135996998e+00 -1 0 0
9 2 1.8211936569273824e+01 8.8726247141985546e+00 4.0986097525233616e+00 -1 0 0
10 3 1.8217127971968978e+01 8.8922156356657620e+00 7.2149622089701078e+00 -1 0 0
11 1 1.7508394308845855e+01 1.0536884063133002e+01 5.6524874037987729e+00 -1 0 0
12 2 7.5021247820793180e+00 1.0099966659767295e+01 4.0843123486201360e+00 0 0 0
13 3 7.4883832495869447e+00 1.0111655265861302e+01 7.1965052096686577e+00 0 0 0
14 1 1.3582328426642144e+01 3.3323021648943540e-07 5.6337570086417683e+00 -1 1 0
15 2 1.0374771117915390e+01 1.1335687181578034e+01 4.0986098606414272e+00 0 0 0
16 3 1.0355209214326731e+01 1.1330387605306464e+01 7.2149623498701310e+00 0 0 0
17 1 2.8683429916429048e+00 1.2263031010363250e+00 5.6513595682367157e+00 0 1 0
18 2 6.4345921267206139e+00 8.2319177182569658e-01 4.1140741973369268e+00 0 1 0
19 3 6.4361434896866907e+00 8.2085638011712492e-01 7.2350270201737494e+00 0 1 0
20 1 5.7247064942577888e+00 2.4723272491694983e+00 5.6742185863615795e+00 0 1 0
21 2 9.2880173515141724e+00 2.0753746537673297e+00 4.1064350307218636e+00 0 1 0
22 3 9.3088018540619171e+00 2.0766009560204628e+00 7.2255076024510743e+00 0 1 0
23 2 1.5024115938859877e+01 4.5493919181358367e+00 4.1086720796606828e+00 -1 0 0
24 3 1.5025226448736319e+01 4.5273432621539760e+00 7.2273897584354732e+00 -1 0 0
25 1 1.4303008863209158e+01 6.1900554109231685e+00 5.6790550704107901e+00 -1 0 0
26 2 4.2867728577950430e+00 5.7785256277707200e+00 4.1140741821217164e+00 0 0 0
27 3 4.2839746820964528e+00 5.7783499374449576e+00 7.2350269990016400e+00 0 0 0
28 1 1.7150739829053080e+01 7.4311864116656041e+00 5.6717530144877317e+00 -1 0 0
29 2 7.1409931353385279e+00 7.0059719793088133e+00 4.1064350300969359e+00 0 0 0
30 3 7.1295388238120019e+00 7.0233587344826454e+00 7.2255075986406441e+00 0 0 0
31 1 6.4190023194327690e+00 8.6654322973835125e+00 5.6513594523139172e+00 0 0 0
32 2 1.0010159693111291e+01 8.2393213920646247e+00 4.1086720512416219e+00 0 0 0
33 3 9.9905097040110586e+00 8.2493839694621087e+00 7.2273897209677527e+00 0 0 0
34 1 9.2852513559710363e+00 9.8942720036394149e+00 5.6524875035980280e+00 0 0 0
35 2 1.2867054019590242e+01 9.4852581600065129e+00 4.1189692733324037e+00 0 0 0
36 3 1.2862026292443112e+01 9.4897305853870222e+00 7.2399425480004957e+00 0 0 0
37 1 1.2153691696945319e+01 1.1137383206077031e+01 5.6717530878335056e+00 0 0 0
38 2 1.5712710793526206e+01 1.0736570250728752e+01 4.1086719792923114e+00 0 0 0
39 3 1.5731250290740537e+01 1.0748556345779042e+01 7.2273896337037122e+00 0 0 0
40 1 8.2229176661941068e+00 6.3017406926401931e-01 5.6706021010351613e+00 0 1 0
41 1 1.1086147584368815e+01 1.8709069357541197e+00 5.6513594835052334e+00 0 1 0
42 1 1.3953340816127298e+01 3.0941275418553937e+00 5.6524875358298576e+00 -1 0 0
43 1 3.2254517582301845e+00 4.3262992693870803e+00 5.6706021774183908e+00 0 0 0
44 2 6.7911642712630105e+00 3.9208807616744368e+00 4.1164182844460893e+00 0 0 0
45 3 6.7911642810449209e+00 3.9208807992147801e+00 7.2385571811413998e+00 0 0 0
46 1 6.0699089502424020e+00 5.5687370126791995e+00 5.6742185423368152e+00 0 0 0
47 2 9.6521278376717561e+00 5.1609248892973092e+00 4.1140741969478958e+00 0 0 0
48 3 9.6533746780328293e+00 5.1634360489693591e+00 7.2350270139841539e+00 0 0 0
49 1 8.9251233997851163e+00 6.8061690677692308e+00 5.6706021353002729e+00 0 0 0
50 2 1.2516655998963227e+01 6.4005665251517065e+00 4.1189692960173989e+00 0 0 0
51 3 1.2515296662273180e+01 6.3939761362234879e+00 7.2399425720140673e+00 0 0 0
52 1 1.1791569512747071e+01 8.0434868189588276e+00 5.6790550697204836e+00 0 0 0
53 1 1.4652408035149088e+01 9.2917414670252043e+00 5.6790550111107549e+00 0 0 0
54 1 8.5788773480680369e+00 3.7215781570326629e+00 5.6742185505849134e+00 0 0 0
55 2 1.2160278807371792e+01 3.3169716557582096e+00 4.0986098414088339e+00 0 0 0
56 3 1.2174649275398219e+01 3.3026802528254797e+00 7.2149623203383824e+00 0 0 0
57 1 1.1442554890726852e+01 4.9567140545891428e+00 5.6717530900015340e+00 0 0 0
58 5 1.6099965334286154e+01 9.6860422408490319e+00 1.0453540427793563e+01 -1 0 0
59 6 1.6079180798376346e+01 9.6872685806758874e+00 1.3572612990752040e+01 -1 0 0
60 5 1.8595086623012840e+01 1.1540958779578158e+01 1.0482542820234684e+01 -1 0 0
61 6 1.8578093250502185e+01 1.1547014968326248e+01 1.3594735674025088e+01 -1 0 0
62 5 1.4279545804711965e+01 1.6509879130089349e+00 1.0482542713933745e+01 -1 1 0
63 6 1.4293287360819223e+01 1.6626766024546420e+00 1.3594735592466797e+01 -1 1 0
64 5 1.3920701838586670e+01 4.7392845020028398e+00 1.0453540309108273e+01 -1 0 0
65 6 1.3932156109536614e+01 4.7566712153794519e+00 1.3572612899691292e+01 -1 0 0
66 5 1.6444537917052607e+01 6.5992071557262220e+00 1.0444021002426929e+01 -1 0 0
67 6 1.6443290987391709e+01 6.6017182798196403e+00 1.3564973818980439e+01 -1 0 0
68 4 1.5370040669817609e+01 8.0410650957901755e+00 1.2004829467608584e+01 -1 0 0
69 5 5.3834840138520503e+00 8.4599629410531563e+00 1.0464085786884819e+01 0 0 0
70 6 5.3691135022939145e+00 8.4456715663992892e+00 1.3580438244256404e+01 0 0 0
71 4 1.7877311045812050e+01 9.8917363310724955e+00 1.2027688567441873e+01 -1 0 0
72 5 7.8723501251913390e+00 1.0333340775544258e+01 1.0482542791007907e+01 0 0 0
73 6 7.8756021158187801e+00 1.0315595984958973e+01 1.3594735652516746e+01 0 0 0
74 4 1.3582327099097782e+01 1.6804661582436108e-06 1.2045290989395559e+01 -1 1 0
75 5 3.5640430144038397e+00 4.3225558903281724e-01 1.0464085640461931e+01 0 1 0
76 6 3.5836049497890983e+00 4.2695608730811879e-01 1.3580438127638594e+01 0 1 0
77 4 2.4940853057349166e+00 1.8683712677289923e+00 1.2026560442252713e+01 0 1 0
78 5 6.0708603478639436e+00 2.2729126440505616e+00 1.0439105422138507e+01 0 1 0
79 6 6.0758880920730931e+00 2.2773850626466521e+00 1.3560078698844071e+01 0 1 0
80 4 1.3210165066170497e+01 3.0972109940419337e+00 1.2027688446781813e+01 -1 0 0
81 5 3.1993439302799587e+00 3.5132592185124913e+00 1.0451658224171894e+01 0 0 0
82 6 3.2189938792181012e+00 3.5233217996457307e+00 1.3570375906060001e+01 0 0 0
83 4 1.5716286389646253e+01 4.9564741803489314e+00 1.2008445818949514e+01 -1 0 0
84 5 5.7241311252889844e+00 5.3686671024348609e+00 1.0439105473302906e+01 0 0 0
85 6 5.7254904220054010e+00 5.3620766510450730e+00 1.3560078742779952e+01 0 0 0
86 4 4.6513894493954027e+00 6.8059291933249888e+00 1.2007294979250549e+01 0 0 0
87 5 8.2340610797873790e+00 7.2353000217982686e+00 1.0451658337654678e+01 0 0 0
88 6 8.2329505785685555e+00 7.2132513089208157e+00 1.3570375998054873e+01 0 0 0
89 4 7.1621755361700146e+00 8.6685157380828883e+00 1.2026560572207400e+01 0 0 0
90 5 1.0726315598174722e+01 9.0999606539330529e+00 1.0453540357157634e+01 0 0 0
91 6 1.0735645829317271e+01 9.0813476129165576e+00 1.3572612937124468e+01 0 0 0
92 4 9.6595065079745037e+00 1.0536340190298837e+01 1.2027688475831921e+01 0 0 0
93 5 1.3227307083827933e+01 1.0941786852537547e+01 1.0444020980611750e+01 0 0 0
94 6 1.3225755737281730e+01 1.0939451488076923e+01 1.3564973798128799e+01 0 0 0
95 4 5.3625255293260530e+00 6.2526008412954326e-01 1.2007294892211116e+01 0 1 0
96 5 8.9400841685927350e+00 1.0140868949853687e+00 1.0451658319153044e+01 0 1 0
97 6 8.9215447100630598e+00 1.0260730087178049e+00 1.3570375979777062e+01 0 1 0
98 4 7.8612421001768427e+00 2.4709018462549213e+00 1.1999992948582001e+01 0 1 0
99 4 5.0004037225011366e+00 3.7191564500686298e+00 1.1999992915995101e+01 0 0 0
100 5 8.5784977632727806e+00 4.1210663796498190e+00 1.0439105465031302e+01 0 0 0
101 6 8.5721106590674818e+00 4.1231843350721160e+00 1.3560078736711127e+01 0 0 0
102 4 7.5118433046752049e+00 5.5725878896133150e+00 1.1999992978291692e+01 0 0 0
103 5 1.1075137824032945e+01 5.9842933770802338e+00 1.0444020977888689e+01 0 0 0
104 6 1.1077936017672435e+01 5.9841175905828292e+00 1.3564973800571156e+01 0 0 0
105 4 1.0016615028530644e+01 7.4363440409327808e+00 1.2008445873050279e+01 0 0 0
106 5 1.3582327621405771e+01 7.8417624584121377e+00 1.0440490816887634e+01 0 0 0
107 6 1.3582327578870842e+01 7.8417624489702416e+00 1.3562629713582961e+01 0 0 0
108 4 1.2515869934913068e+01 9.2903160419268200e+00 1.2004829432341582e+01 0 0 0
109 4 1.5014081271864736e+01 1.1132469222460543e+01 1.2008445888357313e+01 0 0 0
110 4 1.0717228202695363e+01 1.2257592479171930e+00 1.2026560536424693e+01 0 1 0
111 5 1.1425962072620761e+01 2.8704276253854597e+00 1.0464085687560722e+01 0 0 0
112 6 1.1420770707279258e+01 2.8900185338642901e+00 1.3580438167617409e+01 0 0 0
113 4 1.0359574127263263e+01 4.3314569122391111e+00 1.2007294930326530e+01 0 0 0
114 4 1.2861072099458772e+01 6.1939062723515059e+00 1.2004829414877317e+01 0 0 0

Velocities

1 -1.2009947071659253e-07 -1.7056774324555465e-06 -1.0355385848144902e-04
2 -1.2493453002049018e-06 -7.1417342409873707e-07 -1.0202016734929503e-04
3 -1.4189845760025062e-06 9.5730042693982582e-07 -1.0355392306297134e-04
4 4.3047086816334299e-09 1.4396152385127846e-06 -1.0202023683441649e-04
5 -8.2411216511633887e-07 1.6065919398112514e-06 -9.7030265285611605e-05
6 7.9275656128148141e-08 1.6213335323512744e-06 -9.5092424264968999e-05
7 8.2805484839260206e-07 -9.4647090112836654e-07 -9.4843328764836196e-05
8 -8.0644587214770442e-07 -5.4229328456025467e-07 -9.3012856205842442e-05
9 2.4489005550382482e-06 -1.5171973531069009e-06 -9.9660375728902667e-05
10 -5.1642836748271691e-07 -1.8164883205572605e-06 -9.7705480062197067e-05
11 1.3989613937664775e-06 -1.3785930169050381e-06 3.7103181195624043e-05
12 1.5366532870917660e-06 7.5071542290527081e-07 -1.0355388714680772e-04
13 1.2427270472490196e-06 -7.2295247535300625e-07 -1.0202019663779973e-04
14 -5.3398506900430625e-10 5.3996405520036127e-10 4.4257528570989705e-05
15 8.9014390365801069e-08 2.8811961515907984e-06 -9.9660470437797934e-05
16 1.8308386330156241e-06 4.6279072871839826e-07 -9.7705570780387297e-05
17 -1.7888734544555229e-06 1.4863289036675568e-06 3.7278950200370960e-05
18 -7.4438336116592308e-08 1.0897313528225426e-06 -9.5058836796425131e-05
19 -5.3225586076860190e-08 -3.6879967846887198e-07 -9.3223050732980939e-05
20 -1.0343104337620546e-06 4.9202894521881739e-07 2.8294422789805292e-05
21 -9.7978114127666998e-07 -1.5152582223272368e-06 -9.7030202268060954e-05
22 -1.4442843945138595e-06 -7.4024674122184191e-07 -9.5092342120226182e-05
23 -1.5761647759098248e-06 -2.0788574502970017e-07 -9.7176264533019478e-05
24 -1.1178327458814924e-06 2.0978096809763749e-06 -9.5103282774480373e-05
25 -6.4286067044284076e-07 -2.0852298712641866e-07 2.7740754977079950e-05
26 9.7927958709577111e-07 -4.7988795131691481e-07 -9.5058813875417483e-05
27 -2.9447967046738674e-07 2.3086075043784331e-07 -9.3223043742562915e-05
28 1.2558943830858364e-06 4.1365484907821824e-08 2.9972257451581687e-05
29 1.8016369978819876e-06 -8.9037961524467604e-08 -9.7030207849697276e-05
30 1.3627682831305264e-06 -8.7883923601311692e-07 -9.5092353106676769e-05
31 2.1804392634044139e-06 8.0637818369682168e-07 3.7279115473130915e-05
32 6.0624137961210696e-07 1.4694941679744650e-06 -9.7176257988266851e-05
33 2.3739173923957976e-06 -8.0287284458469004e-08 -9.5103256046211361e-05
34 4.9406781289243178e-07 1.9020372066785935e-06 3.7103051815566622e-05
35 4.0523444138814432e-07 1.1920630923804937e-06 -9.4843360152371006e-05
36 8.7232799437213228e-07 -4.2555504340710799e-07 -9.3012878241515194e-05
37 -6.6408552378583548e-07 1.0680730857335825e-06 2.9972158502221761e-05
38 9.6769636528123009e-07 -1.2593190458371459e-06 -9.7176194394850375e-05
39 -1.2583334330108131e-06 -2.0152647480550207e-06 -9.5103192470922352e-05
40 -4.1468920358218201e-08 -1.4285746496896062e-06 2.9971073868733106e-05
41 -3.9309770220507374e-07 -2.2911491054353399e-06 3.7279065221254897e-05
42 -1.8945718276282537e-06 -5.2188613191239881e-07 3.7102998649899867e-05
43 -1.2175649716333273e-06 7.5050088790905544e-07 2.9970972542170751e-05
44 -7.2794138286352083e-10 7.6173838423338146e-10 -9.3942903658040245e-05
45 -7.3784661753356613e-10 7.1324392778982308e-10 -9.2293511650548392e-05
46 9.4215555650566574e-07 6.5004799504274134e-07 2.8294486203101258e-05
47 -9.0703486622088937e-07 -6.0756180913012847e-07 -9.5058828849075444e-05
48 3.4547981390589020e-07 1.4012002386560864e-07 -9.3223038787466523e-05
49 1.2575720631348828e-06 6.7956119130282144e-07 2.9971037557910105e-05
50 -1.2354320648886326e-06 -2.4331969277983584e-07 -9.4843368554992230e-05
51 -6.8116297513886741e-08 9.7003179391135309e-07 -9.3012893242554003e-05
52 1.3965949545581875e-07 6.6133554784611107e-07 2.7740761070354533e-05
53 5.0172521096770112e-07 -4.5133547687368861e-07 2.7740834538971361e-05
54 9.0726370848118810e-08 -1.1406037224147657e-06 2.8294472133654201e-05
55 -2.5402289429358333e-06 -1.3616893454399254e-06 -9.9660438388128687e-05
56 -1.3166843434672781e-06 1.3560459989959606e-06 -9.7705538298253127e-05
57 -5.9328874333709289e-07 -1.1079414749580732e-06 2.9972155643591681e-05
58 -1.4427708167282861e-06 7.4025741050743924e-07 9.5094544087034048e-05
59 -9.7826269949003304e-07 1.5152416412961940e-06 9.7032410306747104e-05
60 -1.2477551787167142e-06 7.1420152083167506e-07 1.0202259976685400e-04
61 -1.1854258383327373e-07 1.7056266687272629e-06 1.0355622367917547e-04
62 1.2443000497410540e-06 7.2302291857283411e-07 1.0202266271913560e-04
63 1.5382219872512407e-06 -7.5070441869714518e-07 1.0355628201768051e-04
64 1.3641896235218019e-06 8.7882615900712194e-07 9.5094629340828496e-05
65 1.8031000577299186e-06 8.9128572954079224e-08 9.7032475890630033e-05
66 3.4690496166397961e-07 -1.4012164046708637e-07 9.3225186498679404e-05
67 -9.0555596715138416e-07 6.0764406149195056e-07 9.5060985069210448e-05
68 9.1698473546484614e-08 1.1406511155916309e-06 -2.8296190670382333e-05
69 -1.3151607852674497e-06 -1.3560565245879911e-06 9.7707763056110273e-05
70 -2.5387076126381407e-06 1.3616723750651797e-06 9.9662644078762460e-05
71 -3.9206218858398350e-07 2.2911999961606345e-06 -3.7280963215319194e-05
72 5.9312805986264124e-09 -1.4395818258632267e-06 1.0202260465511632e-04
73 -1.4173965603504567e-06 -9.5737669208612174e-07 1.0355622745543191e-04
74 5.3240812010032277e-10 -5.4173958421779087e-10 -4.4259448654693364e-05
75 1.8324438020421108e-06 -4.6270797484836009e-07 9.7707852996273148e-05
76 9.0601531065338559e-08 -2.8812231982425899e-06 9.9662736817342676e-05
77 4.9509738720431841e-07 -1.9020493441472520e-06 -3.7104796574744035e-05
78 8.7384164519148978e-07 4.2558056289481265e-07 9.3015016318612751e-05
79 4.0673165164362248e-07 -1.1920377064618519e-06 9.4845533810024020e-05
80 2.1814706764454548e-06 -8.0641173709383561e-07 -3.7280799766627106e-05
81 2.3753991352666376e-06 8.0346475432305671e-08 9.5105495100154266e-05
82 6.0775659105322449e-07 -1.4694028137608268e-06 9.7178492667894393e-05
83 1.2585439887627331e-06 -6.7953251994606637e-07 -2.9972690885211817e-05
84 -6.6674717418024298e-08 -9.7006343089498406e-07 9.3014980403543181e-05
85 -1.2339777959637365e-06 2.4338089462402036e-07 9.4845490449514338e-05
86 -5.9232201021314233e-07 1.1080105848752962e-06 -2.9973973664961962e-05
87 -1.1163486624215883e-06 -2.0978946242624166e-06 9.5105403713369055e-05
88 -1.5747021377286289e-06 2.0786120591947950e-07 9.7178413792577308e-05
89 -1.8935857769185662e-06 5.2192251918921709e-07 -3.7104972993959589e-05
90 8.0815080174093301e-08 -1.6213645040898516e-06 9.5094576412617366e-05
91 -8.2259239170239381e-07 -1.6066495105071851e-06 9.7032437462536589e-05
92 -1.7878726854448382e-06 -1.4863418402737166e-06 -3.7280835364357978e-05
93 -5.1682132334268961e-08 3.6882275769862641e-07 9.3225189840592874e-05
94 -7.2909528251027562e-08 -1.0897718238419913e-06 9.5061009544009128e-05
95 -6.6307862572968862e-07 -1.0680949956263158e-06 -2.9973860174321002e-05
96 -1.2568064651984039e-06 2.0152578510906945e-06 9.5105427266363828e-05
97 9.6918555196093725e-07 1.2592916640566665e-06 9.7178449509202711e-05
98 5.0273089259832577e-07 4.5130111258471185e-07 -2.7742489393951653e-05
99 1.4063631665682121e-07 -6.6132212933156728e-07 -2.7742439445379411e-05
100 -8.0499576469100673e-07 5.4220927967013590e-07 9.3014984804087224e-05
101 8.2947160776983593e-07 9.4649094020287002e-07 9.4845502533167725e-05
102 -6.4191108548240160e-07 2.0852388789697603e-07 -2.7742525414917720e-05
103 -2.9305631282174030e-07 -2.3096555714143064e-07 9.3225194411262211e-05
104 9.8069770665394811e-07 4.7991073199290824e-07 9.5060999826152590e-05
105 -1.2166293071911239e-06 -7.5052241793017088e-07 -2.9972765538598703e-05
106 7.0811186678852215e-10 -7.5079139905189239e-10 9.2295632541885295e-05
107 7.4513189806429705e-10 -7.3575387547211898e-10 9.3945052850898770e-05
108 -1.0333487312848514e-06 -4.9203977612574266e-07 -2.8296143667531649e-05
109 -4.0448232788967741e-08 1.4285726898194278e-06 -2.9972789717912561e-05
110 1.4000244261099269e-06 1.3785618726517662e-06 -3.7104932898603449e-05
111 -5.1494702162405537e-07 1.8164488578980169e-06 9.7707834325250832e-05
112 2.4503632763203653e-06 1.5172129607026761e-06 9.9662715466098973e-05
113 1.2568766729795918e-06 -4.1416618575574654e-08 -2.9973916533774117e-05
114 9.4310330917646381e-07 -6.5006002085904849e-07 -2.8296121691644302e-05
