LAMMPS data file via write_data, version 30 Mar 2018, timestep = 1721

244 atoms
2 atom types

0.0000000000000000e+00 1.9213215378299999e+01 xlo xhi
0.0000000000000000e+00 1.6639132348600000e+01 ylo yhi
0.0000000000000000e+00 1.0000000000000000e+02 zlo zhi
9.6066081349000001e+00 0.0000000000000000e+00 0.0000000000000000e+00 xy xz yz

Masses

1 12.011
2 12.011

Atoms # atomic

1 1 1.7796008334620257e+01 9.2823236231537085e-02 9.9865012735512153e+01 -1 1 -1
2 1 7.8898890467526517e-01 1.1809244918702575e+00 9.9865012106275969e+01 0 1 -1
3 1 2.5036746980620968e+01 1.3187800125020763e+01 9.9905647474558464e+01 -1 0 -1
4 1 2.7241975467224098e+01 1.4277154428634129e+01 9.9876479627268779e+01 -1 0 -1
5 1 2.6613717507454851e+01 1.5550959613767263e+01 9.9872780440313150e+01 -1 0 -1
6 1 1.0234822345574837e+01 1.5365384536299512e+01 9.9865012507481325e+01 0 0 -1
7 1 2.8819822192371277e+01 1.6639132341107452e+01 9.9861000268618326e+01 -1 0 -1
8 1 1.2441063048881285e+01 1.6453665955228704e+01 9.9876478458279578e+01 0 0 -1
9 1 2.2061700243600297e+00 1.0882771894344543e+00 9.9872727784991525e+01 0 1 -1
10 1 5.0402454944665758e+00 9.0405970462512120e-01 9.9905898178620802e+01 0 1 -1
11 1 7.2453883576245470e+00 1.9962037612413310e+00 9.9938027852374603e+01 0 1 -1
12 1 2.2677215885320997e+01 9.6393185470280489e+00 9.9948640705565822e+01 -1 0 -1
13 1 2.4879056553503087e+01 1.0731649425117334e+01 9.9932115171245883e+01 -1 0 -1
14 1 2.4250112999952261e+01 1.2005572320657356e+01 9.9925734006094686e+01 -1 0 -1
15 1 7.8694221246539531e+00 1.1822120723280916e+01 9.9905899812643867e+01 0 0 -1
16 1 2.6453927040932911e+01 1.3095819495963738e+01 9.9893745150305264e+01 -1 0 -1
17 1 1.0074692014349397e+01 1.2910951229385880e+01 9.9887221462869050e+01 0 0 -1
18 1 9.4459968432165802e+00 1.4184393366161752e+01 9.9872728763099673e+01 0 0 -1
19 1 1.2280831863820772e+01 1.3999370383920304e+01 9.9887036050263617e+01 0 0 -1
20 1 1.1652044346745289e+01 1.5272676023728296e+01 9.9872779619818246e+01 0 0 -1
21 1 1.4487085734224454e+01 1.5088559188602234e+01 9.9905645974792662e+01 0 0 -1
22 1 1.3858153327415909e+01 1.6361863464794528e+01 9.9893743622603935e+01 0 0 -1
23 1 1.6693019890710879e+01 1.6180070536660047e+01 9.9932113893150941e+01 0 0 -1
24 1 6.4572558729351588e+00 8.1421992806104282e-01 9.9924825904621684e+01 0 1 -1
25 1 9.2921370053371000e+00 6.3519650486985491e-01 9.9947763537872547e+01 0 1 -1
26 1 8.6625370665369115e+00 1.9082551855416570e+00 9.9947171425784632e+01 0 1 -1
27 1 1.1497916725127315e+01 1.7300060872816043e+00 9.9941647751770617e+01 0 1 -1
28 1 2.0320179937576494e+01 6.0911561759812436e+00 9.9920723090264019e+01 -1 0 -1
29 1 2.2522560924546593e+01 7.1819651930116430e+00 9.9940068159568625e+01 -1 0 -1
30 1 2.1892895838916253e+01 8.4556576894667668e+00 9.9948454903686255e+01 -1 0 -1
31 1 5.5106340957552078e+00 8.2743061726477496e+00 9.9947763738313682e+01 0 0 -1
32 1 2.4094485526955005e+01 9.5482639362914856e+00 9.9944777986956723e+01 -1 0 -1
33 1 7.7126752899276312e+00 9.3663389413956466e+00 9.9938029052913976e+01 0 0 -1
34 1 7.0831134567885758e+00 1.0639873601890773e+01 9.9924827377439271e+01 0 0 -1
35 1 9.9165796885953608e+00 1.0456600092327717e+01 9.9921764416413879e+01 0 0 -1
36 1 9.2867799709056840e+00 1.1729535841103189e+01 9.9902760084538301e+01 0 0 -1
37 1 1.2122051596234140e+01 1.1545716890933802e+01 9.9913804288069457e+01 0 0 -1
38 1 1.1492067083821306e+01 1.2818256498367017e+01 9.9893687479995378e+01 0 0 -1
39 1 1.4328220053945808e+01 1.2634893833537914e+01 9.9920723494462180e+01 0 0 -1
40 1 1.3698102604410543e+01 1.3907354189670786e+01 9.9903227878651407e+01 0 0 -1
41 1 1.6534310229884547e+01 1.3725778905528722e+01 9.9937478143485976e+01 0 0 -1
42 1 1.5904242039211354e+01 1.4998428026781761e+01 9.9925732589212288e+01 0 0 -1
43 1 1.8739926479575168e+01 1.4819385996472802e+01 9.9948640473355439e+01 0 0 -1
44 1 1.8110147295972464e+01 1.6092304820154236e+01 9.9944777363096122e+01 0 0 -1
45 1 2.0945384433113880e+01 1.5914127620262445e+01 9.9940069120349392e+01 0 0 -1
46 1 1.0709299545440629e+01 5.4808581692373115e-01 9.9944415989322152e+01 0 1 -1
47 1 1.3544464439014359e+01 3.6826844829666816e-01 9.9913804835792050e+01 0 1 -1
48 1 1.2915140501721124e+01 1.6413745907365820e+00 9.9924996353480822e+01 0 1 -1
49 1 1.5750471893928943e+01 1.4587167576213103e+00 9.9887221509115477e+01 0 1 -1
50 1 2.0162202575079341e+01 3.6358277689046896e+00 9.9887035557998715e+01 -1 0 -1
51 1 3.1533036673503005e+00 4.7251467635996187e+00 9.9913803243556188e+01 0 0 -1
52 1 2.1737535395178575e+01 5.9989239751710270e+00 9.9925234192113123e+01 -1 0 -1
53 1 5.3558770684834638e+00 5.8166401678809123e+00 9.9941646794727404e+01 0 0 -1
54 1 4.7266126810358742e+00 7.0905627987761815e+00 9.9944415361563017e+01 0 0 -1
55 1 7.5580580985792079e+00 6.9096306894353594e+00 9.9954128600668852e+01 0 0 -1
56 1 6.9279352313307738e+00 8.1830264439682789e+00 9.9947171963228897e+01 0 0 -1
57 1 9.7613190418762095e+00 8.0018632256159243e+00 9.9950072017031815e+01 0 0 -1
58 1 9.1301142699806288e+00 9.2743255514080811e+00 9.9936023821138036e+01 0 0 -1
59 1 1.1966025980926059e+01 9.0924857038209268e+00 9.9941647663123874e+01 0 0 -1
60 1 1.1334171313969868e+01 1.0364153302776389e+01 9.9924996109333946e+01 0 0 -1
61 1 1.4171697936294901e+01 1.0182171522312101e+01 9.9940068629721964e+01 0 0 -1
62 1 1.3539666871459502e+01 1.1453544130426462e+01 9.9925234852050309e+01 0 0 -1
63 1 1.6377412907719062e+01 1.1272444378495843e+01 9.9947491510215173e+01 0 0 -1
64 1 1.5745747454090372e+01 1.2544175035369937e+01 9.9937429668100862e+01 0 0 -1
65 1 1.8582470723354149e+01 1.2364797389179852e+01 9.9954605255327863e+01 0 0 -1
66 1 1.7951738231738982e+01 1.3637263422152731e+01 9.9950490661270848e+01 0 0 -1
67 1 2.0786730982269610e+01 1.3458786038970814e+01 9.9947492166236202e+01 0 0 -1
68 1 2.0157166887654490e+01 1.4731975415436979e+01 9.9948455453652301e+01 0 0 -1
69 1 2.2991243240921250e+01 1.4552214426930124e+01 9.9920724598780495e+01 0 0 -1
70 1 2.2362440954092683e+01 1.5825796351848156e+01 9.9925235681384166e+01 0 0 -1
71 1 2.5196608706502012e+01 1.5643066402568467e+01 9.9887036973748621e+01 0 0 -1
72 1 1.4961508319613829e+01 2.7758132997212037e-01 9.9893688042133732e+01 0 1 -1
73 1 1.7167652719753711e+01 1.3664617464327287e+00 9.9872728601770220e+01 0 1 -1
74 1 1.9373881246590933e+01 2.4546290023078439e+00 9.9872779457484484e+01 -1 0 -1
75 1 2.9946557205201607e+00 2.2694642178093765e+00 9.9887220220950738e+01 0 0 -1
76 1 2.3662442188917288e+00 3.5432944101490969e+00 9.9893686515702910e+01 0 0 -1
77 1 5.1992423876345457e+00 3.3597104484899458e+00 9.9921762968091272e+01 0 0 -1
78 1 4.5705079009863594e+00 4.6336042228743821e+00 9.9924994948310513e+01 0 0 -1
79 1 7.4027372176214765e+00 4.4526191666257597e+00 9.9950071198177113e+01 0 0 -1
80 1 6.7731391511912680e+00 5.7261243495865513e+00 9.9948775895417754e+01 0 0 -1
81 1 9.6066065968454435e+00 5.5463772913331564e+00 9.9959141613146400e+01 0 0 -1
82 1 8.9755172231710070e+00 6.8189465472790465e+00 9.9954429177342860e+01 0 0 -1
83 1 1.1811492989295191e+01 6.6388457277021544e+00 9.9954128847843506e+01 0 0 -1
84 1 1.1179005920987528e+01 7.9103586558172534e+00 9.9948776534890186e+01 0 0 -1
85 1 1.4017048693825949e+01 7.7296292629322743e+00 9.9947763755571302e+01 0 0 -1
86 1 1.3383907544504551e+01 9.0004833989837962e+00 9.9944415784476021e+01 0 0 -1
87 1 1.6222500960139868e+01 8.8195597539291857e+00 9.9948640368223167e+01 0 0 -1
88 1 1.5589580557533360e+01 1.0090631225711579e+01 9.9948454942012603e+01 0 0 -1
89 1 1.8426965027233187e+01 9.9104933782679776e+00 9.9954605124286857e+01 0 0 -1
90 1 1.7795134471976215e+01 1.1182460834314272e+01 9.9956650965154410e+01 0 0 -1
91 1 2.0630207598435987e+01 1.1002973514090124e+01 9.9954605466930417e+01 0 0 -1
92 1 1.9999942150210963e+01 1.2275994940436204e+01 9.9956651344418773e+01 0 0 -1
93 1 2.2832932418619542e+01 1.2096241766005171e+01 9.9937479225552664e+01 0 0 -1
94 1 2.2203914780867780e+01 1.3369959070360515e+01 9.9937430740986017e+01 0 0 -1
95 1 2.4408284970880956e+01 1.4461682048826429e+01 9.9903229167555395e+01 0 0 -1
96 1 4.4117474913570627e+00 2.1778200635262634e+00 9.9902758571286114e+01 0 0 -1
97 1 6.6163548794332838e+00 3.2697486591457001e+00 9.9936022607428583e+01 0 0 -1
98 1 9.4502687061225021e+00 3.0906554737439147e+00 9.9954128489055762e+01 0 0 -1
99 1 8.8200740108583613e+00 4.3635532098437801e+00 9.9954428862926022e+01 0 0 -1
100 1 1.1655763525870139e+01 4.1846495238432873e+00 9.9950071934662532e+01 0 0 -1
101 1 1.1024228586692816e+01 5.4566322213455054e+00 9.9954429221469084e+01 0 0 -1
102 1 1.3861756108646849e+01 5.2765892834221422e+00 9.9938028735421767e+01 0 0 -1
103 1 1.3229347495795871e+01 6.5478503756595616e+00 9.9947171885813262e+01 0 0 -1
104 1 1.6067566818125286e+01 6.3665444146103738e+00 9.9932114367425172e+01 0 0 -1
105 1 1.5435010458665834e+01 7.6376955952757841e+00 9.9944777507653811e+01 0 0 -1
106 1 1.8272400642666021e+01 7.4562436837557540e+00 9.9937478149844821e+01 0 0 -1
107 1 1.7640343279550333e+01 8.7280300474859480e+00 9.9950490551864732e+01 0 0 -1
108 1 2.0475499436559616e+01 8.5470338942903297e+00 9.9947491424676585e+01 0 0 -1
109 1 1.9844566662208816e+01 9.8198085162576625e+00 9.9956651016627674e+01 0 0 -1
110 1 2.2047561770465567e+01 1.0912970850207840e+01 9.9950491230224159e+01 0 0 -1
111 1 1.0867674731096935e+01 3.0026489861834822e+00 9.9948776453743378e+01 0 0 -1
112 1 1.3703997636947250e+01 2.8228215252195081e+00 9.9921764342115424e+01 0 0 -1
113 1 1.3073350602832909e+01 4.0950578521190257e+00 9.9936023647113544e+01 0 0 -1
114 1 1.5910152052256450e+01 3.9129517192303074e+00 9.9905899143664314e+01 0 0 -1
115 1 1.5279450387030415e+01 5.1850385843368780e+00 9.9924826687868318e+01 0 0 -1
116 1 1.8115810472664535e+01 5.0019051849074252e+00 9.9905646182477113e+01 0 0 -1
117 1 1.7485288190189095e+01 6.2742640952715485e+00 9.9925732805802610e+01 0 0 -1
118 1 1.9689981011375540e+01 7.3641302845572909e+00 9.9937429494756131e+01 0 0 -1
119 1 1.5121292190025789e+01 2.7317763017627477e+00 9.9902759837684357e+01 0 0 -1
120 1 1.7956604606490512e+01 2.5474441985651057e+00 9.9876478889887366e+01 0 0 -1
121 1 1.7327562768618066e+01 3.8205816220718289e+00 9.9893744169653715e+01 0 0 -1
122 1 1.9533255586940765e+01 4.9092283213710353e+00 9.9903227632217025e+01 0 0 -1
123 2 2.7402621899228606e+01 1.6546302334794600e+01 3.4349872642002559e+00 -1 0 0
124 2 1.9841435074414065e+01 1.2737410608409450e+00 3.4349878963663629e+00 -1 1 0
125 2 2.3468369233589119e+01 1.1362536338514291e+01 3.3619707367674447e+00 -1 0 0
126 2 2.5516765336743347e+01 1.2726173882476065e+01 3.3941000118856786e+00 -1 0 0
127 2 8.3500026234978382e+00 1.4091681394554522e+01 3.4235203690307117e+00 0 0 0
128 2 2.6774266194556223e+01 1.5272663873126824e+01 3.4272710187538498e+00 -1 0 0
129 2 1.0395602383767899e+01 1.5458201079439899e+01 3.4349874949698869e+00 0 0 0
130 2 9.6066122239870282e+00 1.6639125610412776e+01 3.4389997331608959e+00 0 0 0
131 2 2.8344603453813093e+00 1.8545962184472575e-01 3.4235215418554308e+00 0 1 0
132 2 2.0454416932285224e+00 1.3664496029773356e+00 3.4272207672822375e+00 0 1 0
133 2 4.8804830592172177e+00 1.5505664200436966e+00 3.3943543139749131e+00 0 1 0
134 2 2.1572638856140806e+01 7.5466399178847583e+00 3.3583530823433425e+00 -1 0 0
135 2 2.3623661625394075e+01 8.9094963866571426e+00 3.3522361934504108e+00 -1 0 0
136 2 2.2835960501852490e+01 1.0091275304037437e+01 3.3528279119072004e+00 -1 0 0
137 2 6.4609644885199646e+00 1.0272581214028852e+01 3.3678848227723814e+00 0 0 0
138 2 2.4886063527251917e+01 1.1454087088619662e+01 3.3751725053780333e+00 -1 0 0
139 2 8.5092082883880202e+00 1.1637220404277837e+01 3.3943526818428542e+00 0 0 0
140 2 7.7209606727677027e+00 1.2818544011927965e+01 3.4062548524075078e+00 0 0 0
141 2 1.0555600511156848e+01 1.3003297796001394e+01 3.4129634153400237e+00 0 0 0
142 2 9.7672792670928903e+00 1.4184496620714141e+01 3.4272197773142028e+00 0 0 0
143 2 1.2601269117071496e+01 1.4369661352226915e+01 3.4127790872975781e+00 0 0 0
144 2 1.1812783520380959e+01 1.5550848410099658e+01 3.4272718362880359e+00 0 0 0
145 2 1.4646858961526181e+01 1.5735065856186425e+01 3.3941015193795674e+00 0 0 0
146 2 4.2515505982741422e+00 2.7726213794967419e-01 3.4062563920546145e+00 0 1 0
147 2 7.0864171578191133e+00 4.5905504180189621e-01 3.3678861059359679e+00 0 1 0
148 2 6.2976393613153778e+00 1.6406975967586916e+00 3.3742676671513663e+00 0 1 0
149 2 9.1333237737272164e+00 1.8197395900613513e+00 3.3513596876904925e+00 0 1 0
150 2 1.9681304843610423e+01 3.7281743537271992e+00 3.4127795803270846e+00 -1 0 0
151 2 2.1728664422610326e+01 5.0934087442999765e+00 3.3861967451527102e+00 -1 0 0
152 2 2.0940784172846907e+01 6.2749723272131614e+00 3.3750049255047037e+00 -1 0 0
153 2 4.5650953765994640e+00 6.4569541256237564e+00 3.3599319108920764e+00 0 0 0
154 2 2.2990520401660163e+01 7.6386422735637458e+00 3.3555846285690469e+00 -1 0 0
155 2 6.6158984554198046e+00 7.8195658874207075e+00 3.3513593840284170e+00 0 0 0
156 2 5.8284080112520265e+00 9.0014300867099184e+00 3.3552220516677380e+00 0 0 0
157 2 8.6657982301350707e+00 9.1828819133489983e+00 3.3625209531391671e+00 0 0 0
158 2 7.8786858729991023e+00 1.0364861555422785e+01 3.3742661321635552e+00 0 0 0
159 2 1.0713577645370677e+01 1.0547969373596306e+01 3.3792757761641821e+00 0 0 0
160 2 9.9266534129771991e+00 1.1729897290130076e+01 3.3967711667256739e+00 0 0 0
161 2 1.2759916852742759e+01 1.1913978763418150e+01 3.3861957478654738e+00 0 0 0
162 2 1.1972857523744011e+01 1.3095831179562433e+01 3.4063125089397643e+00 0 0 0
163 2 1.4805855675222286e+01 1.3279415074448183e+01 3.3782363291485478e+00 0 0 0
164 2 1.4018360894534407e+01 1.4461305532354590e+01 3.3972408379136052e+00 0 0 0
165 2 1.6852001721653515e+01 1.4642921785953186e+01 3.3619717806397156e+00 0 0 0
166 2 1.6063869350096105e+01 1.5824905659247987e+01 3.3751738958157329e+00 0 0 0
167 2 1.8898750461474449e+01 1.6003929050698968e+01 3.3522363458323956e+00 0 0 0
168 2 8.5035445378964987e+00 5.4682077940697682e-01 3.3552227104730563e+00 0 1 0
169 2 1.1338781712835257e+01 7.2499794974346610e-01 3.3599309972840068e+00 0 1 0
170 2 1.0550564189410798e+01 1.9071501675378901e+00 3.3515448049370020e+00 0 1 0
171 2 1.3384640580690043e+01 2.0869111264864326e+00 3.3792758574193589e+00 0 1 0
172 2 1.9052609622591614e+01 2.4547322362578923e+00 3.4272719989255798e+00 -1 0 0
173 2 2.6742292495400619e+00 2.6397552117851038e+00 3.4129646423345679e+00 0 0 0
174 2 2.1098679883507948e+01 3.8208691195487576e+00 3.4063134918013196e+00 -1 0 0
175 2 4.7216174673774667e+00 4.0042317960492078e+00 3.3792771808166302e+00 0 0 0
176 2 3.9330643065444910e+00 5.1855815328219279e+00 3.3747659496144609e+00 0 0 0
177 2 6.7708103089248919e+00 5.3666812680641911e+00 3.3525087627691899e+00 0 0 0
178 2 5.9829780016529686e+00 6.5484944295926670e+00 3.3515452468424569e+00 0 0 0
179 2 8.8203624644206897e+00 6.7286322131001715e+00 3.3453946293317145e+00 0 0 0
180 2 8.0337407628636068e+00 7.9110955854382450e+00 3.3495089171796284e+00 0 0 0
181 2 1.0868896947026272e+01 8.0920916475499975e+00 3.3525079799647348e+00 0 0 0
182 2 1.0083378599481090e+01 9.2749953087356580e+00 3.3625695194651981e+00 0 0 0
183 2 1.2915958520273115e+01 9.4571602999236344e+00 3.3599311784828161e+00 0 0 0
184 2 1.2130933106277009e+01 1.0640201587026986e+01 3.3747647672419965e+00 0 0 0
185 2 1.4962490131219369e+01 1.0822485319690061e+01 3.3583526683817406e+00 0 0 0
186 2 1.4177121093221629e+01 1.2005521330626117e+01 3.3750042340987405e+00 0 0 0
187 2 1.7009350383639745e+01 1.2186506335910636e+01 3.3499284361446766e+00 0 0 0
188 2 1.6222968161622564e+01 1.3369376906044906e+01 3.3639768972178916e+00 0 0 0
189 2 1.9056881982049408e+01 1.3548470071154371e+01 3.3458712487376063e+00 0 0 0
190 2 1.8269150445294990e+01 1.4730870412443929e+01 3.3528283578653646e+00 0 0 0
191 2 2.1104530110558287e+01 1.4909119487040332e+01 3.3583520356729948e+00 0 0 0
192 2 2.0315913005210092e+01 1.6091039778238088e+01 3.3555839933931195e+00 0 0 0
193 2 2.3151077951616973e+01 1.6270857115458217e+01 3.3861951384616527e+00 0 0 0
194 2 1.2755838219423129e+01 8.1332924741859980e-01 3.3747645551897221e+00 0 1 0
195 2 1.5590006035878492e+01 9.9605917527057219e-01 3.4129633624377820e+00 0 1 0
196 2 4.0914999992422523e+00 2.7317714312894372e+00 3.3967727224191560e+00 0 0 0
197 2 6.9277075725944526e+00 2.9133466972775954e+00 3.3625221852829195e+00 0 0 0
198 2 6.1391448311466332e+00 4.0949506032463825e+00 3.3625708066052180e+00 0 0 0
199 2 8.9758681012000920e+00 4.2743282042859896e+00 3.3453949187095362e+00 0 0 0
200 2 8.1885318716816009e+00 5.4566647857525341e+00 3.3433491082308557e+00 0 0 0
201 2 1.1023604997891905e+01 5.6361520303327364e+00 3.3453945998043446e+00 0 0 0
202 2 1.0237964101397242e+01 6.8193170453968666e+00 3.3433486913223378e+00 0 0 0
203 2 1.3070613346667667e+01 6.9998069427435583e+00 3.3513593763361467e+00 0 0 0
204 2 1.2286293341043805e+01 8.1834678422635694e+00 3.3515446442067174e+00 0 0 0
205 2 1.5117247000774707e+01 8.3648193105914945e+00 3.3522364243487210e+00 0 0 0
206 2 1.4333225657882124e+01 9.5485627139489679e+00 3.3555842383806258e+00 0 0 0
207 2 1.7164671072013153e+01 9.7294948077776926e+00 3.3458715602083728e+00 0 0 0
208 2 1.6379752217262013e+01 1.0913001190463410e+01 3.3512238300079851e+00 0 0 0
209 2 1.9213219674426909e+01 1.1092748251102144e+01 3.3408583849206837e+00 0 0 0
210 2 1.8426687182272047e+01 1.2275572371982094e+01 3.3455709338767834e+00 0 0 0
211 2 2.1262376728406196e+01 1.2454476060945460e+01 3.3499277769648201e+00 0 0 0
212 2 2.0474288009210802e+01 1.3636476638495305e+01 3.3512233127971633e+00 0 0 0
213 2 2.3310610979737714e+01 1.3816304074815701e+01 3.3782351845851775e+00 0 0 0
214 2 2.2521753912086869e+01 1.4997751034602530e+01 3.3750034270635840e+00 0 0 0
215 2 2.5357085346519771e+01 1.5180408825935457e+01 3.4127781415084839e+00 0 0 0
216 2 2.4568121824092167e+01 1.6361544273629807e+01 3.4063119627172749e+00 0 0 0
217 2 1.7007114828830478e+01 1.0881660009947449e+00 3.4272199415391933e+00 0 1 0
218 2 8.3451355712823947e+00 3.0018621728931185e+00 3.3495096059097187e+00 0 0 0
219 2 1.1180128335818141e+01 3.1803395025308001e+00 3.3525081514091020e+00 0 0 0
220 2 1.0393339503357975e+01 4.3631306261167646e+00 3.3433488686526167e+00 0 0 0
221 2 1.3226329824635030e+01 4.5428837619016980e+00 3.3625213391250783e+00 0 0 0
222 2 1.2440959178625478e+01 5.7261546746233059e+00 3.3495090286919909e+00 0 0 0
223 2 1.5272453995600168e+01 5.9074760817338747e+00 3.3678856363254774e+00 0 0 0
224 2 1.4487882981744388e+01 7.0908615667676491e+00 3.3552223759861963e+00 0 0 0
225 2 1.7319288165522231e+01 7.2727865780442347e+00 3.3619718384001471e+00 0 0 0
226 2 1.6534548129192785e+01 8.4560990914402936e+00 3.3528284507275914e+00 0 0 0
227 2 1.9367931957123400e+01 8.6372623421363812e+00 3.3499286321153425e+00 0 0 0
228 2 1.8582130202977435e+01 9.8201790348424804e+00 3.3455710920157991e+00 0 0 0
229 2 2.1418105983705377e+01 1.0000279871782841e+01 3.3458712482497814e+00 0 0 0
230 2 2.0630841668949483e+01 1.1182493417382629e+01 3.3455707068250238e+00 0 0 0
231 2 2.2679963809415973e+01 1.2544067806443421e+01 3.3639758974330936e+00 0 0 0
232 2 2.4727905540725533e+01 1.3907349346800988e+01 3.3972395775151947e+00 0 0 0
233 2 1.2597312124865716e+01 3.2691664703867693e+00 3.3625697667007328e+00 0 0 0
234 2 1.5430144400155443e+01 3.4513254157392055e+00 3.3943533723374832e+00 0 0 0
235 2 1.4643510388695297e+01 4.6335532287858463e+00 3.3742667970872309e+00 0 0 0
236 2 1.7476034965191591e+01 4.8170048460321109e+00 3.3941013335836203e+00 0 0 0
237 2 1.6689726293001552e+01 5.9992519432136149e+00 3.3751736266022028e+00 0 0 0
238 2 1.9523192535988613e+01 6.1825254897726261e+00 3.3782367578167731e+00 0 0 0
239 2 1.8736727131472733e+01 7.3648000293790137e+00 3.3639771261474571e+00 0 0 0
240 2 2.0785618830223221e+01 8.7287669904360641e+00 3.3512239682525631e+00 0 0 0
241 2 1.4801682329025368e+01 2.1774435332660027e+00 3.3967714326345266e+00 0 0 0
242 2 1.7635372848062961e+01 2.3619711401672308e+00 3.4235211169437942e+00 0 0 0
243 2 1.6847324440909663e+01 3.5433060798188132e+00 3.4062558143249579e+00 0 0 0
244 2 1.8893392800660401e+01 4.9095897687094796e+00 3.3972410911286355e+00 0 0 0

Velocities

1 -2.1868531963684431e-06 -1.9923883252388740e-06 -2.1222666275078560e-05
2 -1.6954283459224952e-06 -9.8735811666008723e-07 -2.1244187655551117e-05
3 -2.3118865502976430e-07 -8.2803234349682411e-06 -1.9617955743381374e-05
4 4.4998430230333091e-06 1.1846669304002463e-06 -2.0794925579287433e-05
5 3.1089695786479016e-06 1.0691737311609576e-06 -2.0940155412427162e-05
6 3.5868308366480697e-06 2.7295136329698521e-06 -2.1243494153543083e-05
7 2.2762696042791829e-06 3.5993441554841280e-07 -2.1414121817412391e-05
8 -6.3561652067591749e-06 2.5080658714922821e-06 -2.0822858711067820e-05
9 9.4432718067785508e-07 -3.8853414703914120e-06 -2.0904719107748197e-05
10 -1.0770779138289611e-06 -5.0662976616267120e-06 -1.9771397013319793e-05
11 6.4934502151110724e-06 3.1093137265754997e-06 -1.8863812557842692e-05
12 2.6965657774272659e-06 -1.0036312414798879e-05 -1.8482618665670631e-05
13 6.8819279406949357e-06 4.8296661139448838e-06 -1.9095877009119080e-05
14 9.4937088402830862e-06 1.7358186847613810e-06 -1.9338884461844316e-05
15 -1.6764672449163816e-06 3.2606782073484001e-06 -1.9792673508011897e-05
16 8.2655019180676426e-07 -5.1682234461180726e-06 -2.0081716631943220e-05
17 -5.0690763596255353e-06 -2.3717836211019087e-06 -2.0346660996271974e-05
18 -3.3908477971601009e-06 -2.2586035717956771e-06 -2.0879395541297542e-05
19 3.2297185718307698e-06 -4.9446691768672722e-06 -2.0267555971849350e-05
20 -2.8201293296038039e-06 5.2682116506061397e-06 -2.0961833269393442e-05
21 8.0769342316065297e-06 6.2717372800651802e-06 -1.9640657536016725e-05
22 6.9707023147430145e-06 2.7098499815902395e-06 -2.0038792283837871e-05
23 -9.0464645891511919e-06 3.7753872311931407e-06 -1.9106630390096074e-05
24 6.0747280103181654e-08 -6.7366574161319812e-06 -1.9164297966047989e-05
25 3.1703674229650206e-07 -7.5630654607811991e-06 -1.8696134651331729e-05
26 -6.1582811513519827e-06 4.8119846474364258e-06 -1.8530709675716864e-05
27 3.7258648493198626e-06 4.1895172917552574e-06 -1.8880967818589294e-05
28 4.0163164296649880e-06 -7.5380262182048063e-06 -1.9274587581696581e-05
29 4.0882949357539824e-06 6.7276464061025577e-06 -1.8735489203838781e-05
30 1.0313084152851131e-05 9.5200553844645002e-07 -1.8669955110345719e-05
31 -6.2657648942306946e-06 1.8651473782860293e-06 -1.8705384198343717e-05
32 -3.4203286336741668e-06 -7.3020722250043591e-06 -1.8720162855541990e-05
33 -7.2888573688846901e-07 -5.4231683081237547e-06 -1.8867748511623235e-05
34 -5.1499613261560882e-06 1.7561147092062063e-06 -1.9155453190402027e-05
35 4.9941569975857895e-06 -1.5327539401314751e-06 -1.9293854783989453e-05
36 3.3588546729650209e-06 4.5945750305644207e-06 -1.9845196254339413e-05
37 5.0066822384251055e-06 5.9939375515399080e-06 -1.9569855062667574e-05
38 6.6807362168419587e-06 -2.8738437385139390e-07 -2.0090080414986253e-05
39 -1.0067989484422245e-05 2.1432048607112082e-06 -1.9318269524594941e-05
40 -3.0371177098570553e-06 -7.7678043609507082e-06 -1.9818917288064312e-05
41 2.9805582087069489e-06 -9.7418512952103266e-06 -1.8583367659779338e-05
42 -6.8613340810533310e-06 8.5417037401548617e-06 -1.9362626678372676e-05
43 8.7147733396052931e-06 7.6229299744732907e-06 -1.8491674819132360e-05
44 9.4477681848287982e-06 1.7209341023076300e-06 -1.8701473713002011e-05
45 -8.0349426301862767e-06 1.9495267862553602e-06 -1.8729825156632675e-05
46 -1.3356708299945468e-06 -7.1745063044153160e-06 -1.8705273228457730e-05
47 4.5898171864735079e-07 -6.6133672942915447e-06 -1.9521404416493896e-05
48 -3.2694805342636624e-06 3.8150419480081434e-06 -1.9085979516343769e-05
49 -2.4157683476295135e-08 2.6992392299300179e-06 -2.0365909853189209e-05
50 -4.5194965532468222e-07 4.4443455163529386e-06 -2.0304910790913508e-05
51 -6.6527652352255973e-06 -2.5695598677273470e-07 -1.9570140885573882e-05
52 -6.3487373944519181e-06 -5.1684681890301928e-06 -1.9334720149168463e-05
53 3.6038907745442705e-06 -4.0222224215697255e-06 -1.8849178359890678e-05
54 -3.8645627651897199e-06 5.1370516476418053e-06 -1.8700554689747117e-05
55 2.5050841371118023e-06 2.6889237035964326e-06 -1.8423786181260846e-05
56 6.5875187728477757e-06 1.7087641234550291e-06 -1.8514075714698863e-05
57 1.8205659516517091e-07 2.4507635534002804e-06 -1.8506772343026023e-05
58 1.8069865639327890e-06 -2.2955067599888398e-06 -1.8653247584797230e-05
59 -6.0924606278826660e-06 -2.5810206768078704e-08 -1.8866350292528188e-05
60 -3.8898890792914281e-06 -5.0868624586423723e-06 -1.9069895144413037e-05
61 4.0926631256613673e-06 -8.0372309978203078e-06 -1.8712721972409275e-05
62 -3.1400912197300711e-06 8.5400562606357930e-06 -1.9335385553758438e-05
63 8.0884817708695575e-06 8.6507475685358277e-06 -1.8297179520823501e-05
64 1.1329454825582849e-05 1.6034107320966987e-06 -1.8779321876189626e-05
65 -1.1920163394336087e-05 2.9768039155268646e-06 -1.7982092744103519e-05
66 -3.7596535663631451e-06 -1.0504407727089260e-05 -1.8522705571044621e-05
67 2.4116369295999220e-06 -1.1258384752956533e-05 -1.8284230569260370e-05
68 -7.4576998903825302e-06 7.8696897791505920e-06 -1.8673499232971161e-05
69 6.8308914790057338e-06 5.8148948015346414e-06 -1.9319468287729661e-05
70 8.0427460478003182e-06 -1.8449328678294563e-07 -1.9325723301521974e-05
71 -2.9797757737868088e-06 6.6074982703638366e-07 -2.0311949563152615e-05
72 -1.1578202776130068e-06 -4.0620554975054621e-06 -2.0101304482352163e-05
73 -1.3859792103871868e-07 3.5123077474633873e-07 -2.0905696756862239e-05
74 -3.9846042466463296e-06 -1.5356190120159544e-06 -2.0935696942225982e-05
75 5.8133614304147609e-06 -2.0042772676772868e-07 -2.0315773531341785e-05
76 -1.8015239457885261e-07 4.9430929496678871e-06 -2.0065457467317515e-05
77 -2.7569881319442362e-06 4.7689900094289867e-06 -1.9321219130097883e-05
78 5.2150060695902091e-06 -1.8129815111510834e-06 -1.9084384044168173e-05
79 -2.8445618017644698e-06 -1.8821674695210832e-06 -1.8510683633943377e-05
80 -4.2019734470333186e-06 -1.1640266597691661e-06 -1.8340996581299096e-05
81 4.5632764065216807e-07 -2.9021861409428354e-09 -1.8154070502686482e-05
82 -1.9942447175672497e-06 -4.6778108051022837e-07 -1.7958075958522160e-05
83 1.6067346582047083e-06 -3.2460064236197774e-06 -1.8421491638650227e-05
84 6.4130043419786456e-07 4.0095988692718592e-06 -1.8333197477771933e-05
85 4.4607074126798766e-06 4.6983480231523819e-06 -1.8704561057813160e-05
86 7.2869727462349524e-06 9.8550888736576839e-07 -1.8710983845292753e-05
87 -1.0726485032593596e-05 2.3774904832538926e-06 -1.8492860918733989e-05
88 -4.7601607227349529e-06 -9.8196374226183573e-06 -1.8670005024672477e-05
89 3.9034054305343738e-06 -1.1211715548734175e-05 -1.7978244857069363e-05
90 -6.7963612764741745e-06 1.0016442955769278e-05 -1.8285979481618153e-05
91 8.1796613044259577e-06 8.4638658684069289e-06 -1.7981552948203799e-05
92 1.2314312179962717e-05 1.2608712267410161e-06 -1.8285465706447298e-05
93 -8.6772949470832027e-06 2.3762730752866760e-06 -1.8602517663611022e-05
94 -3.0931434752635034e-06 -9.5956105678590422e-06 -1.8791061886718305e-05
95 -5.3983819309443191e-06 3.8001192179855732e-06 -1.9812530818984714e-05
96 -6.5505736816772276e-06 2.6502442979444423e-06 -1.9866413974413779e-05
97 2.5499305611006853e-06 3.0422865470074370e-06 -1.8628052863993258e-05
98 -3.5523641833855180e-06 1.8208133144434948e-06 -1.8421813227750323e-05
99 2.0453863055171908e-06 -2.0851278878022251e-06 -1.7957555777156442e-05
100 7.7511931172506312e-07 -1.8830091256635601e-06 -1.8496693176693000e-05
101 -1.4134022182545862e-08 1.6497103316330669e-06 -1.7958336553602058e-05
102 -4.6422157826845907e-06 2.3482201359516869e-06 -1.8884117629135332e-05
103 -2.3802229961013726e-06 -6.1181033315157916e-06 -1.8511031888745340e-05
104 2.6334464262835482e-06 -7.7989108021182221e-06 -1.9080134690823548e-05
105 -4.2395194258063850e-06 7.1932190296483278e-06 -1.8707522148701452e-05
106 5.1162515544493390e-06 7.1393748086356668e-06 -1.8598783202412410e-05
107 1.0588949379222156e-05 1.1642749520102974e-06 -1.8531259361215223e-05
108 -1.0965632020249491e-05 2.1590478419533502e-06 -1.8300202367929696e-05
109 -5.6415312923263098e-06 -1.0332973415501575e-05 -1.8284927690537290e-05
110 -6.9234863165810915e-06 7.5577729498278145e-06 -1.8521074348437845e-05
111 3.1661500267237787e-06 -1.1604840284123482e-06 -1.8328473806465919e-05
112 -1.7572060042051542e-06 -2.3177557128857253e-06 -1.9307548070990667e-05
113 -1.6166174345739883e-06 -6.0085568659193843e-08 -1.8649024745596967e-05
114 1.5143608204735757e-06 1.0475936239219591e-06 -1.9761829899884917e-05
115 4.2709857027119366e-06 1.5139358394904625e-06 -1.9188194995018687e-05
116 -7.7633956896195826e-06 1.6924728573919933e-06 -1.9667258444341713e-05
117 -5.0554084662074925e-06 -7.8188674540552271e-06 -1.9326407402781169e-05
118 -5.3654127073225933e-06 8.0809429517905897e-06 -1.8781598095177248e-05
119 3.0434032371087705e-07 -3.6354945876005719e-06 -1.9818884890438443e-05
120 2.3086577476956133e-06 -3.2379091062914913e-06 -2.0787739745783963e-05
121 -2.5308490148239476e-06 3.5009380801136679e-06 -2.0061468558844542e-05
122 6.3144655207249083e-06 -4.2428646129064741e-07 -1.9847158039778518e-05
123 -1.1956159983856655e-05 9.1227028502709056e-06 2.1172836106432983e-05
124 4.3779591364307750e-06 -1.4843652930269435e-05 2.1297102147551535e-05
125 -2.9509733328190915e-06 -1.7363477123675937e-06 1.8888940787128088e-05
126 -4.0054676844719016e-06 1.9951535100312963e-06 1.9739402962089442e-05
127 2.9941755954836886e-06 -4.2097027244530388e-06 2.0734146122958160e-05
128 -9.1529801319399460e-06 1.7564018144581417e-06 2.0844540891165457e-05
129 6.4956146755474282e-06 5.3432230775493454e-06 2.1241042519753684e-05
130 1.1229897646494007e-05 6.8677352675025849e-06 2.1412761939942459e-05
131 -1.7130685654496813e-05 2.3226442765619129e-06 2.0921501904986066e-05
132 -2.2617064999080217e-06 -1.7144231759777199e-05 2.1012318269961792e-05