
24 atoms
24 atom types
0.000  5.444406 xlo xhi
0.000  6.286658 ylo yhi
0.000  106.627770 zlo zhi

Masses

1 32.066000
2 95.940000
3 32.066000
4 95.940000
5 32.066000
6 95.940000
7 32.066000
8 95.940000
9 32.066000
10 95.940000
11 32.066000
12 95.940000
13 32.066000
14 95.940000
15 32.066000
16 95.940000
17 32.066000
18 95.940000
19 32.066000
20 95.940000
21 32.066000
22 95.940000
23 32.066000
24 95.940000

Atoms

1 1 5.43141 6.26824 53.2723
2 2 0.894406 1.55325 51.7165
3 3 5.43141 6.26824 50.1605
4 4 2.70921 1.55325 53.2723
5 5 3.61661 6.26824 51.7165
6 6 2.70921 1.55325 50.1605
7 7 5.43141 3.12491 53.2723
8 8 0.894406 4.69657 51.7165
9 9 5.43141 3.12491 50.1605
10 10 2.70921 4.69657 53.2723
11 11 3.61661 3.12491 51.7165
12 12 2.70921 4.69657 50.1605
13 13 0.894406 1.55325 59.3485
14 14 5.43141 6.26824 57.7925
15 15 0.894406 1.55325 56.2367
16 16 3.61661 6.26824 59.3485
17 17 2.70921 1.55325 57.7925
18 18 3.61661 6.26824 56.2367
19 19 0.894406 4.69657 59.3485
20 20 5.43141 3.12491 57.7925
21 21 0.894406 4.69657 56.2367
22 22 3.61661 3.12491 59.3485
23 23 2.70921 4.69657 57.7925
24 24 3.61661 3.12491 56.2367
