LAMMPS data file via write_data, version 30 Mar 2018, timestep = 732

42 atoms
6 atom types

0.0000000000000000e+00 8.2442209999999996e+00 xlo xhi
0.0000000000000000e+00 7.1397050000000002e+00 ylo yhi
0.0000000000000000e+00 1.0000000000000000e+02 zlo zhi
4.1221100000000002e+00 0.0000000000000000e+00 0.0000000000000000e+00 xy xz yz

Masses

1 95.94
2 32.066
3 32.066
4 95.94
5 32.066
6 32.066

Atoms # atomic

1 2 6.4785280518622832e+00 3.3696543574684484e-01 4.1000923727231156e+00 -1 1 0
2 3 6.4722683232703133e+00 3.3529074485735783e-01 7.2198476434204633e+00 -1 1 0
3 2 1.1746525568642185e+00 1.3605501985137882e+00 4.1000923795997783e+00 0 1 0
4 3 1.1763320915892495e+00 1.3668085975502415e+00 7.2198476734597827e+00 0 1 0
5 2 4.1220736486609759e+00 2.3798548172937743e+00 4.0960058311374627e+00 0 1 0
6 3 4.1220736395909690e+00 2.3798548537057522e+00 7.2037174268353636e+00 0 1 0
7 2 1.0010153686242992e+01 4.4224863155525833e+00 4.0991758341756537e+00 -1 0 0
8 3 1.0015374027920682e+01 4.4266695367087641e+00 7.2194352040184100e+00 -1 0 0
9 1 9.4177957898084799e+00 6.1208003051549911e+00 5.6595748077380499e+00 -1 0 0
10 2 4.7130403766530859e+00 5.4420488032454850e+00 4.1000923728783309e+00 0 0 0
11 3 4.7176205662614059e+00 5.4374650766190653e+00 7.2198476441417592e+00 0 0 0
12 1 1.2366294314754509e+01 7.1396581097022489e+00 5.6618424215874166e+00 -1 0 0
13 2 7.6532835559416519e+00 6.4577662047250470e+00 4.0991758379181249e+00 0 0 0
14 3 7.6470506256196060e+00 6.4601955465354104e+00 7.2194352072957715e+00 0 0 0
15 1 2.9413402550691998e+00 1.0191934188862808e+00 5.6555857169673693e+00 0 1 0
16 1 5.8908076790506634e+00 2.0376402290675886e+00 5.6555857023640108e+00 0 1 0
17 1 8.8360766953342420e+00 3.0628567444455475e+00 5.6595748129788239e+00 -1 0 0
18 1 3.5340730003808432e+00 4.0827306946204640e+00 5.6555857033638626e+00 0 0 0
19 2 7.0691147352449644e+00 3.3990169152001912e+00 4.0991758348548792e+00 0 0 0
20 3 7.0701273379533411e+00 3.3924043331790696e+00 7.2194351810674977e+00 0 0 0
21 1 6.4786794825113549e+00 5.0956122530438996e+00 5.6595748084642628e+00 0 0 0
22 5 7.0678162728506901e+00 1.3668072461834082e+00 1.0459199256718748e+01 -1 1 0
23 6 7.0694958030740684e+00 1.3605488243008330e+00 1.3578954528140418e+01 -1 1 0
24 4 7.6522923847415933e+00 3.0628554483308532e+00 1.2019472170096588e+01 -1 0 0
25 5 9.4182417435290056e+00 3.3924029868826047e+00 1.0459611696198436e+01 -1 0 0
26 6 9.4192543363100665e+00 3.3990155352152662e+00 1.3579871063635737e+01 -1 0 0
27 4 1.0009689305864683e+01 5.0956109355697228e+00 1.2019472170928717e+01 -1 0 0
28 5 3.5265272126365832e+00 5.4374636743538005e+00 1.0459199259985549e+01 0 0 0
29 6 3.5311074017616972e+00 5.4420474141719941e+00 1.3578954528849369e+01 0 0 0
30 4 1.2366295182012919e+01 7.1396567854094108e+00 1.2017204556762735e+01 -1 0 0
31 5 1.7718801356613505e+00 3.3528938416334086e-01 1.0459199228687750e+01 0 1 0
32 6 1.7656204345233997e+00 3.3696406148893737e-01 1.3578954521848157e+01 0 1 0
33 4 2.3533405241471685e+00 2.0376389088090701e+00 1.2023461263921531e+01 0 1 0
34 5 4.1220745745426237e+00 2.3798533961433361e+00 1.0475329471855959e+01 0 1 0
35 6 4.1220745454622607e+00 2.3798534197950811e+00 1.3583041071529541e+01 0 1 0
36 4 4.7100749151243839e+00 4.0827293483197558e+00 1.2023461278523198e+01 0 0 0
37 5 6.4729948621966162e+00 4.4266681740494285e+00 1.0459611720900465e+01 0 0 0
38 6 6.4782152252669460e+00 4.4224849436423543e+00 1.3579871066707504e+01 0 0 0
39 4 7.0705728410018196e+00 6.1207990045279486e+00 1.2019472165515429e+01 0 0 0
40 5 8.8413180166087244e+00 6.4601941531241103e+00 1.0459611696295179e+01 0 0 0
41 6 8.8350850723664216e+00 6.4577648151916787e+00 1.3579871066878605e+01 0 0 0
42 4 5.3028081141010475e+00 1.0191920844084967e+00 1.2023461276358917e+01 0 1 0

Velocities

1 -2.4257312584162029e-07 1.8660976494967523e-06 -1.0977909727802435e-05
2 2.0037660744637058e-06 2.3409152834604022e-06 -6.9029566545355691e-06
3 1.7425555243702754e-06 -7.2559343593905418e-07 -1.0977939898301905e-05
4 1.0306139565783216e-06 -2.9082737381038810e-06 -6.9031095389982475e-06
5 1.8841539379444824e-09 -2.8644772799291887e-09 -9.5669178882400190e-06
6 1.9198912217234144e-09 -3.0224908622146058e-09 1.0899982902553521e-05
7 -2.8257524059553121e-07 -1.3337333041809052e-06 -1.0253225642191919e-05
8 -2.4154703424374508e-06 -3.7241733151820779e-06 -6.0529555076461904e-06
9 1.1096397661174735e-06 -2.5819047867883412e-07 -1.0265225211921268e-04
10 -1.4945262184026042e-06 -1.1489980657398259e-06 -1.0977913646729211e-05
11 -3.0289047708877872e-06 5.5892146438895075e-07 -6.9029612076077667e-06
12 1.8001637625185837e-09 -2.7736541821515065e-09 -1.0356090716845000e-04
13 1.2966509684284231e-06 4.1626641250483313e-07 -1.0253243812454324e-05
14 4.4332037952169722e-06 -2.3566239718651911e-07 -6.0529749455702255e-06
15 4.7992337392006035e-07 -4.7734122517999070e-07 -1.0285887740687225e-04
16 1.7375608795789864e-07 6.4860211550042354e-07 -1.0285882288720359e-04
17 -7.7339236764534003e-07 -8.3440516721136692e-07 -1.0265227353459784e-04
18 -6.4825489651743122e-07 -1.7964779860017203e-07 -1.0285882302050114e-04
19 -1.0085809146167814e-06 9.0897435526124141e-07 -1.0253233563087123e-05
20 -2.0123014223789389e-06 3.9514251712825159e-06 -6.0528381332445579e-06
21 -3.3096188500250838e-07 1.0843903146811527e-06 -1.0265226068998980e-04
22 -1.1141367327471846e-06 -2.8935280917887629e-06 -6.8996362301418868e-06
23 -1.8288788058373463e-06 -7.4248049083757428e-07 -3.0736006304417222e-06
24 7.4792205277857090e-07 -8.0878065041524382e-07 1.1404995288523940e-04
25 2.1054615709561419e-06 4.1402847858240912e-06 -7.8358833062021876e-06
26 1.0805995384480735e-06 8.9257937423363696e-07 -3.8284572499504049e-06
27 3.2616432532823710e-07 1.0577913366337888e-06 1.1404994207399013e-04
28 3.0626404966592428e-06 4.8783226452069641e-07 -6.8996578238751360e-06
29 1.5571440069492246e-06 -1.2067441237091098e-06 -3.0736077104538054e-06
30 -1.7881179821839768e-09 2.7813302700587018e-09 1.1491920134922934e-04
31 -1.9539455900865740e-06 2.4141575271602454e-06 -6.8994947947747202e-06
32 2.6623531984032010e-07 1.9576866228282486e-06 -3.0735762924522991e-06
33 -3.2834317012610161e-07 5.8129271286366876e-07 1.1454799519792529e-04
34 -1.9664528414463586e-09 2.9948101493591554e-09 -2.6197482505039368e-05
35 -1.8364870572090155e-09 2.8942133037762150e-09 -4.4607698137163682e-06
36 6.6252968089028933e-07 -3.6681194857680864e-09 1.1454793875129007e-04
37 2.5277517306086141e-06 -3.8910092593951853e-06 -7.8360154617958934e-06
38 2.2747746476154957e-07 -1.3794992171845404e-06 -3.8284683968163805e-06
39 -1.0793938772408347e-06 -2.4081865324455201e-07 1.1404996343285769e-04
40 -4.6386469402055744e-06 -2.4086311154363438e-07 -7.8358876264461386e-06
41 -1.3135591779807772e-06 4.9541625928000734e-07 -3.8284750846300778e-06
42 -3.3960221537553564e-07 -5.6923238312733884e-07 1.1454794501844502e-04
