LAMMPS data file via write_data, version 30 Mar 2018, timestep = 1823

244 atoms
2 atom types

0.0000000000000000e+00 1.9213215378299999e+01 xlo xhi
0.0000000000000000e+00 1.6639132348600000e+01 ylo yhi
0.0000000000000000e+00 1.0000000000000000e+02 zlo zhi
9.6066081349000001e+00 0.0000000000000000e+00 0.0000000000000000e+00 xy xz yz

Masses

1 12.011
2 12.011

Atoms # atomic

1 1 1.7796008398514633e+01 9.2823137434430866e-02 9.9865009964786836e+01 -1 1 -1
2 1 7.8898893875045684e-01 1.1809244498555849e+00 9.9865009961781908e+01 0 1 -1
3 1 2.5036747068101029e+01 1.3187800038335919e+01 9.9905644246614372e+01 -1 0 -1
4 1 2.7241975584268637e+01 1.4277154334199919e+01 9.9876476567822237e+01 -1 0 -1
5 1 2.6613717592226351e+01 1.5550959502683122e+01 9.9872777394726114e+01 -1 0 -1
6 1 1.0234822456498323e+01 1.5365384485556168e+01 9.9865009966834620e+01 0 0 -1
7 1 2.8819822267683200e+01 1.6639132274239856e+01 9.9860997762137430e+01 -1 0 -1
8 1 1.2441063117974343e+01 1.6453665978219888e+01 9.9876476562238778e+01 0 0 -1
9 1 2.2061700638932193e+00 1.0882771939716285e+00 9.9872725933916911e+01 0 1 -1
10 1 5.0402455305723270e+00 9.0405979461276798e-01 9.9905896730555128e+01 0 1 -1
11 1 7.2453883724498285e+00 1.9962039112842178e+00 9.9938026333023316e+01 0 1 -1
12 1 2.2677215828262277e+01 9.6393185747933199e+00 9.9948638362510394e+01 -1 0 -1
13 1 2.4879056586217629e+01 1.0731649410726652e+01 9.9932112259810864e+01 -1 0 -1
14 1 2.4250113028608137e+01 1.2005572285297271e+01 9.9925730892159692e+01 -1 0 -1
15 1 7.8694222332089403e+00 1.1822120657214199e+01 9.9905896742460328e+01 0 0 -1
16 1 2.6453927134696585e+01 1.3095819402563032e+01 9.9893741965805305e+01 -1 0 -1
17 1 1.0074692148976855e+01 1.2910951171509643e+01 9.9887218689647199e+01 0 0 -1
18 1 9.4459969588981245e+00 1.4184393294908341e+01 9.9872725942210266e+01 0 0 -1
19 1 1.2280831995339707e+01 1.3999370378406116e+01 9.9887033820418921e+01 0 0 -1
20 1 1.1652044453295940e+01 1.5272676022278469e+01 9.9872777394480394e+01 0 0 -1
21 1 1.4487085834351774e+01 1.5088559265186223e+01 9.9905644243610951e+01 0 0 -1
22 1 1.3858153408105677e+01 1.6361863536145108e+01 9.9893741958694420e+01 0 0 -1
23 1 1.6693019943708912e+01 1.6180070674680252e+01 9.9932112253853688e+01 0 0 -1
24 1 6.4572559145234134e+00 8.1422005119137619e-01 9.9924824412518092e+01 0 1 -1
25 1 9.2921370468073015e+00 6.3519662427188772e-01 9.9947761491053981e+01 0 1 -1
26 1 8.6625370804230322e+00 1.9082553053265943e+00 9.9947169596806489e+01 0 1 -1
27 1 1.1497916758077789e+01 1.7300061289161339e+00 9.9941645202321865e+01 0 1 -1
28 1 2.0320179841070580e+01 6.0911561658600943e+00 9.9920721480764797e+01 -1 0 -1
29 1 2.2522560819977411e+01 7.1819652516886974e+00 9.9940066438348481e+01 -1 0 -1
30 1 2.1892895747770648e+01 8.4556577453671693e+00 9.9948452921422231e+01 -1 0 -1
31 1 5.5106340392825022e+00 8.2743062262495943e+00 9.9947761493331512e+01 0 0 -1
32 1 2.4094485465677788e+01 9.5482639638333122e+00 9.9944775429847908e+01 -1 0 -1
33 1 7.7126753267169033e+00 9.3663389337173850e+00 9.9938026344251057e+01 0 0 -1
34 1 7.0831134838599450e+00 1.0639873575247524e+01 9.9924824422628575e+01 0 0 -1
35 1 9.9165798004597310e+00 1.0456600050673979e+01 9.9921761660779595e+01 0 0 -1
36 1 9.2867800854638674e+00 1.1729535794728724e+01 9.9902757194422037e+01 0 0 -1
37 1 1.2122051729475761e+01 1.1545716875552150e+01 9.9913801849207729e+01 0 0 -1
38 1 1.1492067227740161e+01 1.2818256483092183e+01 9.9893685000099453e+01 0 0 -1
39 1 1.4328220157251366e+01 1.2634893867010254e+01 9.9920721491654533e+01 0 0 -1
40 1 1.3698102726542864e+01 1.3907354229998383e+01 9.9903225911527244e+01 0 0 -1
41 1 1.6534310309408284e+01 1.3725778996931203e+01 9.9937476331301752e+01 0 0 -1
42 1 1.5904242124270453e+01 1.4998428148840471e+01 9.9925730889192749e+01 0 0 -1
43 1 1.8739926540897706e+01 1.4819386116049822e+01 9.9948638362605124e+01 0 0 -1
44 1 1.8110147366511345e+01 1.6092304943613552e+01 9.9944775427308471e+01 0 0 -1
45 1 2.0945384478625222e+01 1.5914127668704495e+01 9.9940066442520603e+01 0 0 -1
46 1 1.0709299591477940e+01 5.4808585703574497e-01 9.9944413525157557e+01 0 1 -1
47 1 1.3544464483279086e+01 3.6826838530468659e-01 9.9913801840634846e+01 0 1 -1
48 1 1.2915140532254689e+01 1.6413745290732318e+00 9.9924993569228604e+01 0 1 -1
49 1 1.5750471921026426e+01 1.4587166484086693e+00 9.9887218681798544e+01 0 1 -1
50 1 2.0162202532793881e+01 3.6358277457466173e+00 9.9887033810082144e+01 -1 0 -1
51 1 3.1533035830864784e+00 4.7251468114008661e+00 9.9913801833017061e+01 0 0 -1
52 1 2.1737535288612555e+01 5.9989240130619255e+00 9.9925232656127122e+01 -1 0 -1
53 1 5.3558769915407831e+00 5.8166402628772751e+00 9.9941645197704858e+01 0 0 -1
54 1 4.7266125723871824e+00 7.0905628807372407e+00 9.9944413522304771e+01 0 0 -1
55 1 7.5580580755287539e+00 6.9096307633299068e+00 9.9954126494349737e+01 0 0 -1
56 1 6.9279351891009409e+00 8.1830264902052754e+00 9.9947169602252899e+01 0 0 -1
57 1 9.7613190769463820e+00 8.0018632349189751e+00 9.9950069561829210e+01 0 0 -1
58 1 9.1301143128522533e+00 9.2743255440967580e+00 9.9936021182997635e+01 0 0 -1
59 1 1.1966026047076509e+01 9.0924856789265682e+00 9.9941645211177729e+01 0 0 -1
60 1 1.1334171417235055e+01 1.0364153283523637e+01 9.9924993578074179e+01 0 0 -1
61 1 1.4171698011102741e+01 1.0182171501660223e+01 9.9940066449572910e+01 0 0 -1
62 1 1.3539666989494069e+01 1.1453544156575161e+01 9.9925232669499891e+01 0 0 -1
63 1 1.6377412962396924e+01 1.1272444425708757e+01 9.9947489570129903e+01 0 0 -1
64 1 1.5745747566333295e+01 1.2544175116235245e+01 9.9937427769798802e+01 0 0 -1
65 1 1.8582470738407970e+01 1.2364797468218551e+01 9.9954603190816613e+01 0 0 -1
66 1 1.7951738298815918e+01 1.3637263519975924e+01 9.9950488655131082e+01 0 0 -1
67 1 2.0786731014560786e+01 1.3458786081684398e+01 9.9947489566719256e+01 0 0 -1
68 1 2.0157166931616160e+01 1.4731975483308972e+01 9.9948452924184210e+01 0 0 -1
69 1 2.2991243310489331e+01 1.4552214390080888e+01 9.9920721487261972e+01 0 0 -1
70 1 2.2362441013089615e+01 1.5825796303215343e+01 9.9925232662931151e+01 0 0 -1
71 1 2.5196608779885970e+01 1.5643066297283889e+01 9.9887033817311405e+01 0 0 -1
72 1 1.4961508369244990e+01 2.7758120618808452e-01 9.9893684993666724e+01 0 1 -1
73 1 1.7167652754144942e+01 1.3664616352735097e+00 9.9872725936609257e+01 0 1 -1
74 1 1.9373881243729652e+01 2.4546289485643413e+00 9.9872777388839992e+01 -1 0 -1
75 1 2.9946557237930422e+00 2.2694642524271491e+00 9.9887218676119687e+01 0 0 -1
76 1 2.3662441804781023e+00 3.5432944353484093e+00 9.9893684986276014e+01 0 0 -1
77 1 5.1992423479001104e+00 3.3597105599604635e+00 9.9921761643896147e+01 0 0 -1
78 1 4.5705078292070249e+00 4.6336043090055217e+00 9.9924993561780056e+01 0 0 -1
79 1 7.4027371820525492e+00 4.4526192933522175e+00 9.9950069551229376e+01 0 0 -1
80 1 6.7731390738541588e+00 5.7261244500925885e+00 9.9948774153368703e+01 0 0 -1
81 1 9.6066065995606600e+00 5.5463773556435818e+00 9.9959139493857109e+01 0 0 -1
82 1 8.9755172011410345e+00 6.8189465896628887e+00 9.9954426990878943e+01 0 0 -1
83 1 1.1811493010001126e+01 6.6388457194217798e+00 9.9954126497871925e+01 0 0 -1
84 1 1.1179005956853704e+01 7.9103586543833444e+00 9.9948774162958230e+01 0 0 -1
85 1 1.4017048711056333e+01 7.7296292219149301e+00 9.9947761497416280e+01 0 0 -1
86 1 1.3383907615637245e+01 9.0004833846195123e+00 9.9944413532244198e+01 0 0 -1
87 1 1.6222500939586716e+01 8.8195597335040503e+00 9.9948638365317308e+01 0 0 -1
88 1 1.5589580612190714e+01 1.0090631245185071e+01 9.9948452928399718e+01 0 0 -1
89 1 1.8426964995357359e+01 9.9104933923315990e+00 9.9954603190285070e+01 0 0 -1
90 1 1.7795134502220535e+01 1.1182460909587034e+01 9.9956648983343172e+01 0 0 -1
91 1 2.0630207574672895e+01 1.1002973565202069e+01 9.9954603189660745e+01 0 0 -1
92 1 1.9999942175336962e+01 1.2275995008623177e+01 9.9956648981926605e+01 0 0 -1
93 1 2.2832932432970253e+01 1.2096241766376517e+01 9.9937476330991728e+01 0 0 -1
94 1 2.2203914805007660e+01 1.3369959057417894e+01 9.9937427767001239e+01 0 0 -1
95 1 2.4408285033741237e+01 1.4461681952525527e+01 9.9903225910074639e+01 0 0 -1
96 1 4.4117474869487072e+00 2.1778201460932554e+00 9.9902757179694063e+01 0 0 -1
97 1 6.6163548517919519e+00 3.2697487887293017e+00 9.9936021169457788e+01 0 0 -1
98 1 9.4502687128239273e+00 3.0906555854985185e+00 9.9954126491442196e+01 0 0 -1
99 1 8.8200739876732488e+00 4.3635532973416424e+00 9.9954426986340266e+01 0 0 -1
100 1 1.1655763539261384e+01 4.1846495401764088e+00 9.9950069556268659e+01 0 0 -1
101 1 1.1024228592178327e+01 5.4566322322499978e+00 9.9954426990292660e+01 0 0 -1
102 1 1.3861756096645546e+01 5.2765892261279177e+00 9.9938026339383129e+01 0 0 -1
103 1 1.3229347509954072e+01 6.5478503254466132e+00 9.9947169603138889e+01 0 0 -1
104 1 1.6067566778691081e+01 6.3665443370028303e+00 9.9932112255695060e+01 0 0 -1
105 1 1.5435010459433908e+01 7.6376955654935745e+00 9.9944775430626805e+01 0 0 -1
106 1 1.8272400566461936e+01 7.4562436613117695e+00 9.9937476327547785e+01 0 0 -1
107 1 1.7640343263499048e+01 8.7280300602375842e+00 9.9950488654414897e+01 0 0 -1
108 1 2.0475499331971935e+01 8.5470339176137493e+00 9.9947489563954136e+01 0 0 -1
109 1 1.9844566612919824e+01 9.8198085583924488e+00 9.9956648980779406e+01 0 0 -1
110 1 2.2047561728885370e+01 1.0912970895188186e+01 9.9950488654448350e+01 0 0 -1
111 1 1.0867674749405836e+01 3.0026490153812029e+00 9.9948774156192172e+01 0 0 -1
112 1 1.3703997647173235e+01 2.8228214597249082e+00 9.9921761651306326e+01 0 0 -1
113 1 1.3073350614219233e+01 4.0950577884795445e+00 9.9936021176349641e+01 0 0 -1
114 1 1.5910152030815128e+01 3.9129516209068780e+00 9.9905896733893769e+01 0 0 -1
115 1 1.5279450379589486e+01 5.1850384968150420e+00 9.9924824416544666e+01 0 0 -1
116 1 1.8115810405508018e+01 5.0019051193454622e+00 9.9905644239239294e+01 0 0 -1
117 1 1.7485288137627908e+01 6.2742640401527909e+00 9.9925730886907985e+01 0 0 -1
118 1 1.9689980920106031e+01 7.3641303016914916e+00 9.9937427762483878e+01 0 0 -1
119 1 1.5121292203810128e+01 2.7317761826136588e+00 9.9902757185779194e+01 0 0 -1
120 1 1.7956604604916471e+01 2.5474441090803515e+00 9.9876476560829175e+01 0 0 -1
121 1 1.7327562747468694e+01 3.8205815355000987e+00 9.9893741958040692e+01 0 0 -1
122 1 1.9533255530964933e+01 4.9092282910456992e+00 9.9903225902704150e+01 0 0 -1
123 2 2.7402616593019872e+01 1.6546309017818892e+01 3.4349900346221256e+00 -1 0 0
124 2 1.9841429832807790e+01 1.2737476689664147e+00 3.4349900376796265e+00 -1 1 0
125 2 2.3468364011800912e+01 1.1362542928589654e+01 3.3619736595086316e+00 -1 0 0
126 2 2.5516760019182559e+01 1.2726180534486472e+01 3.3941032600919718e+00 -1 0 0
127 2 8.3499972890590506e+00 1.4091688046193710e+01 3.4235234314995875e+00 0 0 0
128 2 2.6774260873575891e+01 1.5272670550936258e+01 3.4272740597451055e+00 -1 0 0
129 2 1.0395597075752958e+01 1.5458207705199310e+01 3.4349900325629781e+00 0 0 0
130 2 2.8819822326325927e+01 1.6639132260732794e+01 3.4390022372946043e+00 -1 0 0
131 2 2.8344550582893833e+00 1.8546617750210126e-01 3.4235234371708341e+00 0 1 0
132 2 2.0454364509127121e+00 1.3664561635226391e+00 3.4272226104835068e+00 0 1 0
133 2 4.8804778468973495e+00 1.5505728908387126e+00 3.3943557613230624e+00 0 1 0
134 2 2.1572633758311536e+01 7.5466464757084637e+00 3.3583548009964250e+00 -1 0 0
135 2 2.3623656493584118e+01 8.9095029332142435e+00 3.3522385069498206e+00 -1 0 0
136 2 2.2835955350220082e+01 1.0091281860227760e+01 3.3528303993037767e+00 -1 0 0
137 2 6.4609592562879552e+00 1.0272587818932337e+01 3.3678877392668380e+00 0 0 0
138 2 2.4886058293009395e+01 1.1454093690497009e+01 3.3751755791620042e+00 -1 0 0
139 2 8.5092029571293093e+00 1.1637227037092163e+01 3.3943557492352263e+00 0 0 0
140 2 7.7209553567438149e+00 1.2818550651810444e+01 3.4062580333228296e+00 0 0 0
141 2 1.0555595158529083e+01 1.3003304410139327e+01 3.4129661763181489e+00 0 0 0
142 2 9.7672739270524520e+00 1.4184503237802103e+01 3.4272226019775509e+00 0 0 0
143 2 1.2601263801927708e+01 1.4369667902847080e+01 3.4127813122956776e+00 0 0 0
144 2 1.1812778199195943e+01 1.5550854991991123e+01 3.4272740600308014e+00 0 0 0
145 2 1.4646853682345487e+01 1.5735072361014209e+01 3.3941032632348120e+00 0 0 0
146 2 4.2515453473363216e+00 2.7726865083237334e-01 3.4062580409395968e+00 0 1 0
147 2 7.0864118975906996e+00 4.5906148235730077e-01 3.3678877456197771e+00 0 1 0
148 2 6.2976341364030093e+00 1.6407040386949696e+00 3.3742691151923068e+00 0 1 0
149 2 9.1333185661851761e+00 1.8197460410852957e+00 3.3513616386705505e+00 0 1 0
150 2 1.9681299657350447e+01 3.7281809832756343e+00 3.4127813228410582e+00 -1 0 0
151 2 2.1728659309865627e+01 5.0934152787830396e+00 3.3861981663304723e+00 -1 0 0
152 2 2.0940779054570225e+01 6.2749789009655075e+00 3.3750064362568435e+00 -1 0 0
153 2 4.5650902855436861e+00 6.4569606537468172e+00 3.3599335617437394e+00 0 0 0
154 2 2.2990515325078697e+01 7.6386488020995520e+00 3.3555864771164332e+00 -1 0 0
155 2 6.6158932856614587e+00 7.8195724238511604e+00 3.3513616359803491e+00 0 0 0
156 2 5.8284028631073879e+00 9.0014366219939141e+00 3.3552245691626972e+00 0 0 0
157 2 8.6657929850608539e+00 9.1828884960250967e+00 3.3625236635994868e+00 0 0 0
158 2 7.8786806135733993e+00 1.0364868147368703e+01 3.3742691039334991e+00 0 0 0
159 2 1.0713572333775403e+01 1.0547975990462259e+01 3.3792785040660496e+00 0 0 0
160 2 9.9266480808186301e+00 1.1729903895896497e+01 3.3967740831635411e+00 0 0 0
161 2 1.2759911528334932e+01 1.1913985343779411e+01 3.3861981501918126e+00 0 0 0
162 2 1.1972852183620542e+01 1.3095837751119710e+01 3.4063149991218533e+00 0 0 0
163 2 1.4805850367154017e+01 1.3279421594687674e+01 3.3782383420399729e+00 0 0 0
164 2 1.4018355564877867e+01 1.4461312039853956e+01 3.3972428092849607e+00 0 0 0
165 2 1.6851996464534587e+01 1.4642928243479291e+01 3.3619736590074072e+00 0 0 0
166 2 1.6063864065451327e+01 1.5824912134654767e+01 3.3751755827731942e+00 0 0 0
167 2 1.8898745211148793e+01 1.6003935530635495e+01 3.3522385063579208e+00 0 0 0
168 2 8.5035393198329619e+00 5.4682724270507987e-01 3.3552245727900769e+00 0 1 0
169 2 1.1338776445261884e+01 7.2500448648948301e-01 3.3599335569216100e+00 0 1 0
170 2 1.0550558956691974e+01 1.9071567027973644e+00 3.3515470764784014e+00 0 1 0
171 2 1.3384635350375317e+01 2.0869177647310724e+00 3.3792785135324395e+00 0 1 0
172 2 1.9052604391889155e+01 2.4547388902110279e+00 3.4272740657038976e+00 -1 0 0
173 2 2.6742240673332622e+00 2.6397617761248222e+00 3.4129661898416477e+00 0 0 0
174 2 2.1098674734594322e+01 3.8208757029186047e+00 3.4063150130923545e+00 -1 0 0
175 2 4.7216123009349307e+00 4.0042382893798916e+00 3.3792785206289166e+00 0 0 0
176 2 3.9330591909693147e+00 5.1855880299209556e+00 3.3747673442486117e+00 0 0 0
177 2 6.7708051773717486e+00 5.3666877314090886e+00 3.3525104370313952e+00 0 0 0
178 2 5.9829728844443597e+00 6.5485009424569451e+00 3.3515470784707349e+00 0 0 0
179 2 8.8203572831736903e+00 6.7286387654071138e+00 3.3453968078664160e+00 0 0 0
180 2 8.0337356078456441e+00 7.9111021282708256e+00 3.3495113420914109e+00 0 0 0
181 2 1.0868891692664915e+01 8.0920982399617198e+00 3.3525104266283474e+00 0 0 0
182 2 1.0083373337593814e+01 9.2750018857082424e+00 3.3625722255184747e+00 0 0 0
183 2 1.2915953254256561e+01 9.4571669040078064e+00 3.3599335486984052e+00 0 0 0
184 2 1.2130927779947418e+01 1.0640208172876594e+01 3.3747673278780441e+00 0 0 0
185 2 1.4962484877538987e+01 1.0822491890989310e+01 3.3583547896075476e+00 0 0 0
186 2 1.4177115773443868e+01 1.2005527875463990e+01 3.3750064227899905e+00 0 0 0
187 2 1.7009345141586184e+01 1.2186512858777553e+01 3.3499304395629546e+00 0 0 0
188 2 1.6222962870577497e+01 1.3369383395412850e+01 3.3639788196819733e+00 0 0 0
189 2 1.9056876745880096e+01 1.3548476567191358e+01 3.3458735041847856e+00 0 0 0
190 2 1.8269145172530131e+01 1.4730876878901990e+01 3.3528303985523795e+00 0 0 0
191 2 2.1104524863849115e+01 1.4909126024622429e+01 3.3583547959911968e+00 0 0 0
192 2 2.0315907755676420e+01 1.6091046327269947e+01 3.3555864739035544e+00 0 0 0
193 2 2.3151072661713531e+01 1.6270863768694664e+01 3.3861981585772742e+00 0 0 0
194 2 1.2755832979533563e+01 8.1333588129453305e-01 3.3747673372050730e+00 0 1 0
195 2 1.5590000761875928e+01 9.9606585691284000e-01 3.4129661841467853e+00 0 1 0
196 2 4.0914947962752732e+00 2.7317779564424489e+00 3.3967740983734598e+00 0 0 0
197 2 6.9277023941919893e+00 2.9133531602911940e+00 3.3625236750875058e+00 0 0 0
198 2 6.1391397082514834e+00 4.0949570723049460e+00 3.3625722397404303e+00 0 0 0
199 2 8.9758628948375723e+00 4.2743346899861097e+00 3.3453968114583224e+00 0 0 0
200 2 8.1885267164400197e+00 5.4566712792009548e+00 3.3433510195075686e+00 0 0 0
201 2 1.1023599803921718e+01 5.6361585924031621e+00 3.3453968076270080e+00 0 0 0
202 2 1.0237958898973783e+01 6.8193236297018789e+00 3.3433510142271974e+00 0 0 0
203 2 1.3070608130971074e+01 6.9998135816042426e+00 3.3513616326739153e+00 0 0 0
204 2 1.2286288106938875e+01 8.1834744406700555e+00 3.3515470688104845e+00 0 0 0
205 2 1.5117241793279767e+01 8.3648259276664767e+00 3.3522385026587544e+00 0 0 0
206 2 1.4333220383401990e+01 9.5485693030251575e+00 3.3555864670563520e+00 0 0 0
207 2 1.7164665903284845e+01 9.7295013886061099e+00 3.3458735033054099e+00 0 0 0
208 2 1.6379746958955892e+01 1.0913007732638075e+01 3.3512258379963087e+00 0 0 0
209 2 1.9213214500404717e+01 1.1092754796040845e+01 3.3408605053770293e+00 0 0 0
210 2 1.8426681947092767e+01 1.2275578885227493e+01 3.3455730088895548e+00 0 0 0
211 2 2.1262371513140799e+01 1.2454482612243961e+01 3.3499304431345940e+00 0 0 0
212 2 2.0474282781668467e+01 1.3636483167951640e+01 3.3512258421125485e+00 0 0 0
213 2 2.3310605694670993e+01 1.3816310693865395e+01 3.3782383465778749e+00 0 0 0
214 2 2.2521748637114406e+01 1.4997757655348208e+01 3.3750064297629714e+00 0 0 0
215 2 2.5357080042262616e+01 1.5180415506350920e+01 3.4127813154170323e+00 0 0 0
216 2 2.4568116547139816e+01 1.6361550979253956e+01 3.4063150058197005e+00 0 0 0
217 2 1.7007109573885767e+01 1.0881726826392406e+00 3.4272226077064691e+00 0 1 0
218 2 8.3451303820647649e+00 3.0018686679322761e+00 3.3495113488565904e+00 0 0 0
219 2 1.1180123112297075e+01 3.1803460750939174e+00 3.3525104332989555e+00 0 0 0
220 2 1.0393334330898162e+01 4.3631371793547977e+00 3.3433510179309858e+00 0 0 0
221 2 1.3226324603900117e+01 4.5428903896065123e+00 3.3625236692853409e+00 0 0 0
222 2 1.2440953957129233e+01 5.7261612911533941e+00 3.3495113428136714e+00 0 0 0
223 2 1.5272448831655577e+01 5.9074827437300117e+00 3.3678877436053032e+00 0 0 0
224 2 1.4487877766922788e+01 7.0908682205872529e+00 3.3552245680471113e+00 0 0 0
225 2 1.7319283023595524e+01 7.2727932199391754e+00 3.3619736626478520e+00 0 0 0
226 2 1.6534542942109564e+01 8.4561056921264033e+00 3.3528303977084941e+00 0 0 0
227 2 1.9367926845927627e+01 8.6372689174165522e+00 3.3499304457281069e+00 0 0 0
228 2 1.8582125026911264e+01 9.8201855925315726e+00 3.3455730104528043e+00 0 0 0
229 2 2.1418100852113170e+01 1.0000286433424298e+01 3.3458735065782688e+00 0 0 0
230 2 2.0630836491657227e+01 1.1182499952085378e+01 3.3455730108626183e+00 0 0 0
231 2 2.2679958587476790e+01 1.2544074396872940e+01 3.3639788226759593e+00 0 0 0
232 2 2.4727900250100760e+01 1.3907356003314199e+01 3.3972428107754729e+00 0 0 0
233 2 1.2597306902281671e+01 3.2691731285294581e+00 3.3625722332786845e+00 0 0 0
234 2 1.5430139181753839e+01 3.4513321165141706e+00 3.3943557579852062e+00 0 0 0
235 2 1.4643505199258973e+01 4.6335598994922078e+00 3.3742691104989868e+00 0 0 0
236 2 1.7476029798981745e+01 4.8170114966741675e+00 3.3941032677641823e+00 0 0 0
237 2 1.6689721105699498e+01 5.9992586082715160e+00 3.3751755842686535e+00 0 0 0
238 2 1.9523187440193684e+01 6.1825321028025817e+00 3.3782383533138378e+00 0 0 0
239 2 1.8736722008007234e+01 7.3648066395997605e+00 3.3639788266580641e+00 0 0 0
240 2 2.0785613725172141e+01 8.7287735296446201e+00 3.3512258451245787e+00 0 0 0
241 2 1.4801677072689337e+01 2.1774502323478333e+00 3.3967740921821350e+00 0 0 0
242 2 1.7635367640902079e+01 2.3619778200954928e+00 3.4235234386298616e+00 0 0 0
243 2 1.6847319247410041e+01 3.5433127828447200e+00 3.4062580412741421e+00 0 0 0
244 2 1.8893387650782557e+01 4.9095963896189732e+00 3.3972428180632903e+00 0 0 0

Velocities

1 3.6533413644072089e-06 -3.4673115940573309e-05 -2.7329125583712722e-05
2 -1.3043134170856524e-05 1.8697139031446601e-05 -2.7252640514654010e-05
3 1.1204554277472798e-05 -9.3653543774815384e-05 -2.4735804663783809e-05
4 4.3010842483029252e-05 4.3090151724576075e-05 -2.7272538491468808e-05
5 5.3368005138521981e-05 6.5890063429513381e-08 -2.7342750289356519e-05
6 7.8645109052875125e-06 1.3841054767843447e-05 -2.7343999266751172e-05
7 -4.4554163362112836e-06 -9.9254510055225153e-06 -2.7522175131911779e-05
8 -4.3806717826569514e-05 4.7101872954549172e-06 -2.7117659600556738e-05
9 1.3423212074286414e-05 -1.6599233487420060e-05 -2.6835659770145472e-05
10 -7.2764538534159202e-06 -3.6677793263671772e-05 -2.5601321048157139e-05
11 5.7948372485880974e-05 2.0636717367709943e-05 -2.3949950571241367e-05
12 2.9819231758334573e-05 -1.1277638987523041e-04 -2.4072424803274963e-05
13 6.9216067798358313e-05 6.7918090674689134e-05 -2.5302759136637001e-05
14 1.0713958888228205e-04 1.6166513265714341e-05 -2.6015667742628051e-05
15 -4.3308650822185084e-05 3.0507552422523010e-05 -2.5614572601850896e-05
16 -1.7752477328426109e-05 -6.2777177302554229e-05 -2.5022962167520373e-05
17 -3.6667947087582411e-05 -4.0459062030448412e-05 -2.5815202533563775e-05
18 -3.7010059509655002e-05 5.8634392001421020e-06 -2.6903044658493161e-05
19 2.7924267791026556e-05 -2.8595803091368234e-05 -2.5727060785118929e-05
20 -7.8663417350710634e-06 3.4880438565791381e-05 -2.7148843469685154e-05
21 6.3340041117159102e-05 4.7321907848206167e-05 -2.4846312568623713e-05
22 4.7473458709868942e-05 1.1504641646037437e-05 -2.5235880500985804e-05
23 -8.6246274835195713e-05 2.2679635359695100e-05 -2.5239556034924721e-05
24 3.1392139112307093e-07 -6.1544415956895805e-05 -2.4725598573668216e-05
25 1.3135808841554181e-05 -7.3077925028606385e-05 -2.4110948055516577e-05
26 -5.3081443058593783e-05 4.9881805692467230e-05 -2.4175881188835887e-05
27 3.9247960920068544e-05 5.5079367103480121e-05 -2.4626437288468420e-05
28 3.3294692219065681e-05 -9.0049634648194937e-05 -2.5850190375013783e-05
29 5.5388368320749116e-05 6.8068514780301380e-05 -2.3432879751003182e-05
30 1.1401154734778541e-04 1.6214329153984855e-05 -2.4207760977425182e-05
31 -7.5084646714992527e-05 2.5518594629998173e-05 -2.4124131022204975e-05
32 -4.1630861423406754e-05 -8.6391381526575232e-05 -2.3470278904058096e-05
33 -2.6959944041877094e-06 -6.7366999702342384e-05 -2.3885961375531984e-05
34 -5.9242150209303600e-05 3.8858988745823144e-05 -2.4807703305514512e-05
35 4.2981250761526033e-05 3.2988096475263247e-06 -2.4895880221947354e-05
36 4.5513285940873026e-05 3.7011322378635467e-05 -2.6146634126272847e-05
37 3.0891317889232142e-05 4.9958742313544121e-05 -2.5506608069860004e-05
38 3.8419274578558369e-05 -1.5633144947421545e-05 -2.5476598035742555e-05
39 -9.2715352747626433e-05 7.7263519083696967e-06 -2.5717402867735043e-05
40 -3.2414503747013970e-05 -6.6282058473176686e-05 -2.5477910463964038e-05
41 2.9692723706956514e-05 -9.2319318478649480e-05 -2.3354984290912468e-05
42 -5.7181473730054879e-05 7.6563787332243908e-05 -2.5852786909278982e-05
43 8.2201032507397498e-05 7.8252320691032170e-05 -2.4062049122230915e-05
44 8.9010815481991399e-05 7.9242887637900883e-06 -2.3543766517120208e-05
45 -9.3414060363128528e-05 1.5270408266690909e-05 -2.3389076357030225e-05
46 -2.2838659904428811e-05 -7.1674187070506985e-05 -2.4008599143148957e-05
47 2.4678631254654854e-05 -7.0125959272939779e-05 -2.5465746928332072e-05
48 -2.9718040477098848e-05 6.4023611044282969e-05 -2.4071212045444680e-05
49 5.8227986895903610e-06 5.7519693848590971e-05 -2.6050983929893886e-05
50 2.2335744159595018e-05 3.0933587196514926e-05 -2.5766795917690154e-05
51 -6.3695561252741188e-05 1.4167263759106809e-05 -2.5384922160126766e-05
52 -4.6749851455599809e-05 -7.0976784048965041e-05 -2.5728365179579838e-05
53 3.3380565915859397e-05 -5.7032597755183058e-05 -2.4566374745812166e-05
54 -4.6623670770108563e-05 5.5793803033567241e-05 -2.4005207930531288e-05
55 2.6462180312557544e-05 3.1969097383818110e-05 -2.3730387748122867e-05
56 7.5339191212920258e-05 1.7781727199066099e-05 -2.4166062432069316e-05
57 -8.7045797912500650e-06 2.4556191072388143e-05 -2.3981510238039702e-05
58 7.5965836497984735e-07 -3.2123289229914125e-05 -2.3633226914391434e-05
59 -5.3698926718017706e-05 -6.6950585684752898e-06 -2.4444630833818913e-05
60 -4.2774636666965060e-05 -3.8346618655824284e-05 -2.4301258037257062e-05
61 3.2973578082011186e-05 -7.2270903496864236e-05 -2.3520089146887495e-05
62 -2.5166377428845070e-05 7.3979083150201938e-05 -2.5639800804869017e-05
63 7.7753946171863229e-05 7.9829066156014448e-05 -2.3506273275576659e-05
64 9.7573025479953023e-05 8.5543282771580982e-06 -2.3402897144116535e-05
65 -1.2292364868339323e-04 2.6556959696616516e-05 -2.3383857440326426e-05
66 -4.1386525431296183e-05 -1.0629869931235823e-04 -2.3843332217563750e-05
67 3.2279998816300488e-05 -1.1579633440874298e-04 -2.3477797306123707e-05
68 -7.1101772572722602e-05 9.3947051020013776e-05 -2.4200968774117756e-05
69 6.8108506279422796e-05 8.2234067822481666e-05 -2.5944601940513877e-05
70 9.2444481682135148e-05 -5.7314195243713867e-06 -2.5834764830017187e-05
71 -5.6349220116721622e-05 2.8912521735758661e-06 -2.5551008978155435e-05
72 -3.1957507644966610e-05 -4.6668824356888782e-05 -2.5507892091939495e-05
73 1.9316174231981062e-06 3.7191137638446705e-05 -2.6697681462010609e-05
74 -1.1510421550737097e-05 -3.3885126706895937e-05 -2.7223133016956438e-05
75 4.1549059895109202e-05 -2.1761398165655923e-05 -2.6015287310094811e-05
76 -1.7942176439948821e-05 3.9340047797715763e-05 -2.5576849458817727e-05
77 -1.3588066217685729e-05 3.5204894642542920e-05 -2.4771858580046960e-05
78 6.1534308103849045e-05 -8.8161754475735395e-06 -2.4193230395936477e-05
79 -2.6575703425928863e-05 -1.2739382349908453e-05 -2.4003119461715829e-05
80 -3.7967902176720446e-05 -2.2715774971243965e-05 -2.3900829071295687e-05
81 7.7238241183047083e-06 -3.7006225843621811e-06 -2.3446941193230231e-05
82 -2.3002505231801932e-05 1.8210683430726224e-07 -2.3141848272155759e-05
83 8.0005725376756959e-06 -2.6868120615667821e-05 -2.3749956569474109e-05
84 9.5844693766059201e-06 3.4643019435380734e-05 -2.3872765309702476e-05
85 4.8378502923104519e-05 4.1769269432799611e-05 -2.4108731794389480e-05
86 5.8713091843739779e-05 1.0199276550619480e-05 -2.4014243483951555e-05
87 -1.0147427190196710e-04 2.8860288463451163e-05 -2.4030372506788519e-05
88 -4.3549858646577748e-05 -9.9647349591669459e-05 -2.4190440250535721e-05
89 3.7130025379507969e-05 -1.1644626293295718e-04 -2.3383022898897906e-05
90 -6.7619839479113818e-05 1.0094726218964659e-04 -2.3813006209561745e-05
91 8.6445128215163574e-05 9.2660140243154109e-05 -2.3384198667257536e-05
92 1.2559803862948726e-04 1.1599313059819191e-05 -2.3836054035498708e-05
93 -1.0582665403999600e-04 2.6216873182247049e-05 -2.3302600160703166e-05
94 -4.4669578824010812e-05 -1.0182450819902692e-04 -2.3279528483586003e-05
95 -5.5752610560245982e-05 7.0203122690593842e-05 -2.5373347622365920e-05
96 -4.5119094673587972e-05 8.2038662551404351e-06 -2.6093352951615284e-05
97 1.7389234859788256e-05 2.1968450696127121e-05 -2.3712503662767938e-05
98 -3.9270484021401777e-05 1.2749387317395153e-05 -2.3714481121538348e-05
99 2.1564793075263117e-05 -1.9998348561258840e-05 -2.3108470722873969e-05
100 1.8367034656302214e-05 -1.9139029750760572e-05 -2.3964394148530288e-05
101 -3.3837111811009139e-06 2.2600757115655428e-05 -2.3086289616812407e-05
102 -3.6743258911573540e-05 3.7131492762122096e-05 -2.4023459055486830e-05
103 -1.4189246398043175e-05 -6.1001497533403102e-05 -2.4140411177322736e-05
104 1.6374127894299798e-05 -7.9763776201077928e-05 -2.5188611361892626e-05
105 -4.4344688549736969e-05 6.6374796572680957e-05 -2.3618745125079795e-05
106 6.7908492614581303e-05 6.7220023557934571e-05 -2.3399306279808296e-05
107 1.0591280803274721e-04 1.9641509692831690e-05 -2.3832553295566673e-05
108 -1.1263413459747761e-04 3.1640789916959183e-05 -2.3461753147538548e-05
109 -5.2668257823583112e-05 -1.1441525900385804e-04 -2.3821071521897584e-05
110 -7.3690952766391004e-05 9.2030394824077225e-05 -2.3854298861123829e-05
111 3.8412511574824959e-05 -1.5339953563741647e-05 -2.3890043229271040e-05
112 -3.3560388310890906e-05 -2.4398528022138819e-05 -2.4639739970702780e-05
113 -2.2758303881892168e-05 -3.4180095847092497e-06 -2.3823598745868619e-05
114 3.9319327555934390e-05 3.0714046032213930e-06 -2.5709702934731880e-05
115 4.3376112893829491e-05 3.6427137087184807e-05 -2.4576912298385822e-05
116 -6.8651554355999273e-05 3.9667369295334525e-05 -2.4730176450938305e-05
117 -3.0302619409265712e-05 -8.9746716186656805e-05 -2.5888651039889642e-05
118 -5.9748359338216881e-05 8.0774475320452902e-05 -2.3396518914773643e-05
119 2.6048971360971979e-05 -4.3911751061639063e-05 -2.6217198787450564e-05
120 2.1430462650730512e-06 -4.2957102799686660e-05 -2.7083199077475318e-05
121 -3.9205274799578507e-05 2.7293228015992092e-05 -2.5318713869227763e-05
122 7.1529592804428944e-05 1.6977216532323878e-05 -2.5325217430321718e-05
123 8.1622221359797028e-06 1.9530134233630177e-05 2.7347969285530461e-05
124 2.6438732966384662e-05 -2.9127709599371163e-06 2.7246098854886845e-05
125 -4.5841275872208585e-05 -5.1695429282418273e-05 2.3899584148796448e-05
126 5.1322098593984892e-05 -6.3594855996083253e-06 2.5777709229988941e-05
127 9.7022743319135763e-06 5.3862487782499620e-05 2.7202006467041134e-05
128 1.7068669387943218e-05 -3.2637427791209282e-05 2.6832104543614603e-05
129 -2.9350604859739042e-05 -1.2722917759633275e-05 2.7329715358001072e-05
130 -6.5127366803544735e-06 -8.9226608225841348e-06 2.7522613946025910e-05
131 -4.3922942767218700e-05 -2.3813404531019824e-05 2.7141343478825453e-05
132 -2.7622872353710275e-05 -2.8558512443374010e-05 2.7262096587106610e-05