LAMMPS data file via write_data, version 3 Mar 2020, timestep = 269

114 atoms
6 atom types

0.0000000000000000e+00 1.3582328630299999e+01 xlo xhi
0.0000000000000000e+00 1.1762641629699999e+01 ylo yhi
0.0000000000000000e+00 1.0000000000000000e+02 zlo zhi
6.7911643268999997e+00 0.0000000000000000e+00 0.0000000000000000e+00 xy xz yz

Masses

1 95.94
2 32.066
3 32.066
4 95.94
5 32.066
6 32.066

Atoms # atomic

1 2 1.1786929854601432e+01 2.1562850918518420e-01 4.0843164458320800e+00 -1 1 0
2 3 1.1803923735041336e+01 2.2168484518192011e-01 7.1965090629406276e+00 -1 1 0
3 2 1.0844393268053720e+00 1.4470473392207399e+00 4.0843164457195229e+00 0 1 0
4 3 1.0811873295274905e+00 1.4293020387594453e+00 7.1965090627757435e+00 0 1 0
5 2 3.9444831177284656e+00 2.6812956017063367e+00 4.1064397247373474e+00 0 1 0
6 3 3.9351526834919510e+00 2.6626820266811526e+00 7.2255121672440570e+00 0 1 0
7 2 1.5363276315731950e+01 7.6394591645239158e+00 4.1189743142045447e+00 -1 0 0
8 3 1.5369663613637218e+01 7.6415772137378193e+00 7.2399474740902887e+00 -1 0 0
9 2 1.8211936133313785e+01 8.8726249229989715e+00 4.0986142921892776e+00 -1 0 0
10 3 1.8217127684353152e+01 8.8922163545238924e+00 7.2149665850288969e+00 -1 0 0
11 1 1.7508394114886549e+01 1.0536884637977062e+01 5.6524919650704337e+00 -1 0 0
12 2 7.5021245897088438e+00 1.0099966600513635e+01 4.0843164445016269e+00 0 0 0
13 3 7.4883827093731243e+00 1.0111655562918873e+01 7.1965090612033542e+00 0 0 0
14 1 2.7173411242980897e-07 2.7339426660866507e-07 5.6337610396422635e+00 0 1 0
15 2 1.0374771266918804e+01 1.1335687039819794e+01 4.0986142917693762e+00 0 0 0
16 3 1.0355208814658482e+01 1.1330387337442307e+01 7.2149665845904547e+00 0 0 0
17 1 2.8683436608296500e+00 1.2263027101729338e+00 5.6513639475924879e+00 0 1 0
18 2 6.4345926454156706e+00 8.2319161952216424e-01 4.1140790707988222e+00 0 1 0
19 3 6.4361439969892764e+00 8.2085617119271692e-01 7.2350317837338567e+00 0 1 0
20 1 5.7247070537259050e+00 2.4723270863952571e+00 5.6742235344609364e+00 0 1 0
21 2 9.2880176107092751e+00 2.0753749531895944e+00 4.1064397254036828e+00 0 1 0
22 3 9.3088026558231629e+00 2.0766013468548921e+00 7.2255121681469596e+00 0 1 0
23 2 1.5024116555397017e+01 4.5493922562063229e+00 4.1086767901519812e+00 -1 0 0
24 3 1.5025227150502619e+01 4.5273429690001823e+00 7.2273943094278019e+00 -1 0 0
25 1 1.4303009231578381e+01 6.1900554663324288e+00 5.6790601959159410e+00 -1 0 0
26 2 4.2867730243456661e+00 5.7785257736242412e+00 4.1140790708788950e+00 0 0 0
27 3 4.2839747916645274e+00 5.7783499876808078e+00 7.2350317837082168e+00 0 0 0
28 1 1.7150739830967538e+01 7.4311865893615634e+00 5.6717580125342364e+00 -1 0 0
29 2 7.1409930421169951e+00 7.0059718915369311e+00 4.1064397238674220e+00 0 0 0
30 3 7.1295384306645104e+00 7.0233590727203374e+00 7.2255121661224209e+00 0 0 0
31 1 6.4190019648893157e+00 8.6654324449064895e+00 5.6513639467732766e+00 0 0 0
32 2 1.0010159801401954e+01 8.2393211784825127e+00 4.1086767884145114e+00 0 0 0
33 3 9.9905092600664656e+00 8.2493840193731653e+00 7.2273943072922373e+00 0 0 0
34 1 9.2852510837145505e+00 9.8942719205459717e+00 5.6524919637074360e+00 0 0 0
35 2 1.2867054046920629e+01 9.4852581516172876e+00 4.1189743135751815e+00 0 0 0
36 3 1.2862026113691696e+01 9.4897306893602771e+00 7.2399474733989262e+00 0 0 0
37 1 1.2153691633175329e+01 1.1137383252324099e+01 5.6717580119957622e+00 0 0 0
38 2 1.5712710370763032e+01 1.0736570641085354e+01 4.1086767894720637e+00 0 0 0
39 3 1.5731250316815078e+01 1.0748557087796891e+01 7.2273943086537580e+00 0 0 0
40 1 8.2229182083433514e+00 6.3017427117299440e-01 5.6706070424744413e+00 0 1 0
41 1 1.1086148145400937e+01 1.8709072937467570e+00 5.6513639489358631e+00 0 1 0
42 1 1.3953341529712320e+01 3.0941275201938381e+00 5.6524919661142965e+00 -1 0 0
43 1 3.2254523139616058e+00 4.3262990813647040e+00 5.6706070425207074e+00 0 0 0
44 2 6.7911645901360789e+00 3.9208808151266181e+00 4.1164232095644744e+00 0 0 0
45 3 6.7911645894471571e+00 3.9208808153751762e+00 7.2385620301285254e+00 0 0 0
46 1 6.0699090296400717e+00 5.5687369974419783e+00 5.6742235340746650e+00 0 0 0
47 2 9.6521281005645054e+00 5.1609250524175927e+00 4.1140790711912611e+00 0 0 0
48 3 9.6533749803280333e+00 5.1634362873642106e+00 7.2350317841479148e+00 0 0 0
49 1 8.9251232473614355e+00 6.8061690952416152e+00 5.6706070414164547e+00 0 0 0
50 2 1.2516656364619617e+01 6.4005667584401662e+00 4.1189743144417843e+00 0 0 0
51 3 1.2515296998968035e+01 6.3939761731279798e+00 7.2399474744098944e+00 0 0 0
52 1 1.1791569482777572e+01 8.0434868368022538e+00 5.6790601947794306e+00 0 0 0
53 1 1.4652408012247921e+01 9.2917417746513173e+00 5.6790601951725046e+00 0 0 0
54 1 8.5788776859827571e+00 3.7215783633865538e+00 5.6742235349747245e+00 0 0 0
55 2 1.2160279327675143e+01 3.3169721141581245e+00 4.0986142937676568e+00 0 0 0
56 3 1.2174650229827387e+01 3.3026803842780605e+00 7.2149665870931949e+00 0 0 0
57 1 1.1442555262886346e+01 4.9567142360917700e+00 5.6717580135793337e+00 0 0 0
58 5 1.6099966953008874e+01 9.6860408081643286e+00 1.0453535462186709e+01 -1 0 0
59 6 1.6079181907210547e+01 9.6872672025918725e+00 1.3572607904750777e+01 -1 0 0
60 5 1.8595088034200394e+01 1.1540957309571192e+01 1.0482538566699441e+01 -1 0 0
61 6 1.8578094154345756e+01 1.1547013647510209e+01 1.3594731183803063e+01 -1 0 0
62 5 1.4279546989201513e+01 1.6509865917253013e+00 1.0482538566939306e+01 -1 1 0
63 6 1.4293288870025483e+01 1.6626755558447062e+00 1.3594731184001340e+01 -1 1 0
64 5 1.3920702719301479e+01 4.7392830831121691e+00 1.0453535461692530e+01 -1 0 0
65 6 1.3932157329926286e+01 4.7566702634352831e+00 1.3572607904400030e+01 -1 0 0
66 5 1.6444539273194060e+01 6.5992058678128540e+00 1.0444015845895054e+01 -1 0 0
67 6 1.6443292391595552e+01 6.6017171020256509e+00 1.3564968558841830e+01 -1 0 0
68 4 1.5370041980287938e+01 8.0410637926751090e+00 1.2004824095108146e+01 -1 0 0
69 5 5.3834858946789028e+00 8.4599617706734200e+00 1.0464081044821828e+01 0 0 0
70 6 5.3691149916266605e+00 8.4456700413693984e+00 1.3580433337703205e+01 0 0 0
71 4 1.7877312442196050e+01 9.8917348626005737e+00 1.2027683681821619e+01 -1 0 0
72 5 7.8723516265822600e+00 1.0333340116309868e+01 1.0482538568466632e+01 0 0 0
73 6 7.8756036245412755e+00 1.0315594817583033e+01 1.3594731185167475e+01 0 0 0
74 4 2.4446899900666158e-07 2.5364770401781483e-07 1.2045286590032774e+01 0 1 0
75 5 3.5640444618762968e+00 4.3225481751524880e-01 1.0464081044927525e+01 0 1 0
76 6 3.5836069147907801e+00 4.2695511667889274e-01 1.3580433337708818e+01 0 1 0
77 4 2.4940867337505623e+00 1.8683702358977188e+00 1.2026555664892626e+01 0 1 0
78 5 6.0708617657821238e+00 2.2729114663160632e+00 1.0439100155702503e+01 0 1 0
79 6 6.0758896993577434e+00 2.2773840039292317e+00 1.3560073315570184e+01 0 1 0
80 4 1.3210166248400066e+01 3.0972097119511499e+00 1.2027683680867957e+01 -1 0 0
81 5 3.1993449154087306e+00 3.5132581354533468e+00 1.0451653321287321e+01 0 0 0
82 6 3.2189954559176823e+00 3.5233209764302011e+00 1.3570370840416746e+01 0 0 0
83 4 1.5716287535483232e+01 4.9564730607235559e+00 1.2008440587349041e+01 -1 0 0
84 5 5.7241326587987018e+00 5.3686659827382668e+00 1.0439100156232339e+01 0 0 0
85 6 5.7254920236214017e+00 5.3620753961483567e+00 1.3560073316065827e+01 0 0 0
86 4 4.6513909244181697e+00 6.8059279198646943e+00 1.2007289617548853e+01 0 0 0
87 5 8.2340628134003424e+00 7.2352991877991881e+00 1.0451653322268141e+01 0 0 0
88 6 8.2329522184673678e+00 7.2132498994258025e+00 1.3570370841163607e+01 0 0 0
89 4 7.1621771941750874e+00 8.6685146364219143e+00 1.2026555665820423e+01 0 0 0
90 5 1.0726316979469503e+01 9.0999601299001132e+00 1.0453535463632429e+01 0 0 0
91 6 1.0735647414299343e+01 9.0813465546738907e+00 1.3572607905865844e+01 0 0 0
92 4 9.6595079586156896e+00 1.0536339446680770e+01 1.2027683683033903e+01 0 0 0
93 5 1.3227308296255039e+01 1.0941785984557717e+01 1.0444015846001056e+01 0 0 0
94 6 1.3225756945021089e+01 1.0939450536788986e+01 1.3564968558829172e+01 0 0 0
95 4 5.3625272810545717e+00 6.2525890450477140e-01 1.2007289617313221e+01 0 1 0
96 5 8.9400859655155109e+00 1.0140850681194309e+00 1.0451653320095845e+01 0 1 0
97 6 8.9215460202579493e+00 1.0260715152113125e+00 1.3570370839406193e+01 0 1 0
98 4 7.8612436645304307e+00 2.4709003826493716e+00 1.1999987433719008e+01 0 1 0
99 4 5.0004051377751857e+00 3.7191553195885509e+00 1.1999987434637037e+01 0 0 0
100 5 8.5784992700332072e+00 4.1210649433804774e+00 1.0439100155191154e+01 0 0 0
101 6 8.5721119728873010e+00 4.1231829908916762e+00 1.3560073315167587e+01 0 0 0
102 4 7.5118448909562199e+00 5.5725866907049539e+00 1.1999987434801183e+01 0 0 0
103 5 1.1075139082660550e+01 5.9842921697540907e+00 1.0444015845539006e+01 0 0 0
104 6 1.1077937315714610e+01 5.9841163818324299e+00 1.3564968558485122e+01 0 0 0
105 4 1.0016616607333328e+01 7.4363430758784492e+00 1.2008440588239187e+01 0 0 0
106 5 1.3582328884135741e+01 7.8417613408939557e+00 1.0440485599546509e+01 0 0 0
107 6 1.3582328884158127e+01 7.8417613401719874e+00 1.3562624420110559e+01 0 0 0
108 4 1.2515871350214596e+01 9.2903150704544881e+00 1.2004824095644208e+01 0 0 0
109 4 1.5014082507844856e+01 1.1132467885687092e+01 1.2008440587025273e+01 0 0 0
110 4 1.0717229763910249e+01 1.2257575192810579e+00 1.2026555663419893e+01 0 1 0
111 5 1.1425963337245099e+01 2.8704258018124063e+00 1.0464081042563206e+01 0 0 0
112 6 1.1420771786977316e+01 2.8900172330655285e+00 1.3580433335886772e+01 0 0 0
113 4 1.0359575487658999e+01 4.3314555681608589e+00 1.2007289616053701e+01 0 0 0
114 4 1.2861073320781255e+01 6.1939051592841921e+00 1.2004824094762421e+01 0 0 0

Velocities

1 9.4876635649983090e-06 -1.2401903522304136e-05 -2.1701363499426019e-04
2 -1.0435924900302395e-05 -2.0385996100328095e-05 -2.0327785216957105e-04
3 -1.5484275714891645e-05 -2.0158050352882051e-06 -2.1701363410306265e-04
4 -1.2436926059424922e-05 1.9230577211713062e-05 -2.0327785071683403e-04
5 -1.5546024012166675e-05 3.3778079356334860e-06 -2.4187697467587340e-04
6 -6.0653619564662595e-06 2.5904938634040255e-05 -2.3486955059772360e-04
7 8.0129503651937177e-06 -5.3114304614716143e-06 -2.5793054335723341e-04
8 -4.5563702342321597e-08 -8.2281295532564197e-06 -2.5260392276938630e-04
9 2.2060199572497998e-05 -1.5886000970843277e-07 -2.3359012438688642e-04
10 1.6292140163390520e-05 -2.3405609789798846e-05 -2.2385414775154256e-04
11 7.1574233264009350e-06 -1.6630003147071540e-05 -2.2526034123375587e-04
12 5.9963223020571267e-06 1.4417481770853066e-05 -2.1701362343866536e-04
13 2.2872536878583305e-05 1.1552092384588240e-06 -2.0327783684621320e-04
14 -1.0131983184240601e-10 -7.3504705371086083e-11 -2.0362964807986856e-04
15 -1.0892731005940010e-05 1.9184095076017207e-05 -2.3359012111549048e-04
16 1.2123568972444164e-05 2.5812198734935050e-05 -2.2385414410295128e-04
17 -1.1589996227858188e-05 1.5924506059858327e-05 -2.2355204343889765e-04
18 -1.3805149154293675e-06 3.5563149464543933e-06 -2.5085336389071345e-04
19 -3.5829180849668356e-06 5.3311148183037204e-06 -2.4563666195866662e-04
20 -7.6808882167643778e-06 5.2378450899918134e-06 -2.4888771981149805e-04
21 4.8475356372087836e-06 -1.5152175723258066e-05 -2.4187698000797335e-04
22 -1.9401855924710078e-05 -1.8205240865464329e-05 -2.3486955816834777e-04
23 -1.5267951460310029e-05 -1.0924534530330427e-05 -2.4553105978212012e-04
24 -1.8286683373426634e-05 1.5768088469935708e-05 -2.3796143679876439e-04
25 -7.6278577534110395e-06 1.3554803105777876e-06 -2.5651570505062625e-04
26 3.7700363078468974e-06 -5.8278664787515582e-07 -2.5085336423155387e-04
27 6.4082535231811187e-06 4.3715255201702522e-07 -2.4563666141167036e-04
28 7.5952569668539285e-06 -2.7523055837736641e-06 -2.4735180261424810e-04
29 1.0698204217637080e-05 1.1774162402487835e-05 -2.4187696646474360e-04
30 2.5466938446327981e-05 -7.6999022932600107e-06 -2.3486954071748041e-04
31 1.9585939123201733e-05 2.0747850088230385e-06 -2.2355203630964330e-04
32 -1.8270274895314750e-06 1.8684523867533770e-05 -2.4553104495569336e-04
33 2.2798836232978751e-05 7.9525039123811651e-06 -2.3796141814952140e-04
34 1.0823082827443805e-05 1.4513493416542401e-05 -2.2526032953465650e-04
35 5.9315832668095076e-07 9.5951154825693509e-06 -2.5793053816579342e-04
36 7.1483496838337190e-06 4.0745868413031369e-06 -2.5260391662425795e-04
37 -1.4142703104319379e-06 7.9538181055925206e-06 -2.4735179788041548e-04
38 1.7094695940476000e-05 -7.7601917021926200e-06 -2.4553105448801426e-04
39 -4.5124341735251964e-06 -2.3720798055324759e-05 -2.3796143027279224e-04
40 -3.0496567841353814e-06 -1.4806506051340796e-05 -2.4542247365281811e-04
41 -7.9962354893682290e-06 -1.7999501913142370e-05 -2.2355205473515878e-04
42 -1.7980798256826932e-05 2.1162972549071299e-06 -2.2526034983971557e-04
43 -1.1298066402959211e-05 1.0044145048625021e-05 -2.4542247413272318e-04
44 -9.4225040464280555e-11 -6.5455803552684022e-11 -2.5277078809235481e-04
45 -8.8397291315587931e-11 -6.7803743454452237e-11 -2.4913125788191952e-04
46 8.3764695141014859e-06 4.0327384558277034e-06 -2.4888771644344856e-04
47 -2.3898033931226706e-06 -2.9737265924571889e-06 -2.5085336664741424e-04
48 -2.8256061955113125e-06 -5.7684714027521917e-06 -2.4563666481629254e-04
49 1.4347443054132753e-05 4.7621590270634093e-06 -2.4542246405507586e-04
50 -8.6063887705622300e-06 -4.2838772648222728e-06 -2.5793054522055232e-04
51 -7.1030576116862334e-06 4.1533371776341551e-06 -2.5260392509592083e-04
52 4.9877332020542843e-06 5.9279993783180320e-06 -2.5651569525870241e-04
53 2.6398467408296191e-06 -7.2836839500104861e-06 -2.5651569910466556e-04
54 -6.9585820580666218e-07 -9.2707809413919091e-06 -2.4888772396237886e-04
55 -1.1167754572063321e-05 -1.9025447905501088e-05 -2.3359013782156860e-04
56 -2.8416003020520212e-05 -2.4067954997936092e-06 -2.2385416516601219e-04
57 -6.1812684513281783e-06 -5.2017167825228114e-06 -2.4735181074108428e-04
58 -1.9401665106414940e-05 1.8205246623235037e-05 2.3486955291420343e-04
59 4.8477319595603239e-06 1.5152175637639115e-05 2.4187697618601497e-04
60 -1.0435719135938943e-05 2.0386004256763999e-05 2.0327785214179791e-04
61 9.4878645017146257e-06 1.2401895774165791e-05 2.1701363548630648e-04
62 2.2872739284368048e-05 -1.1551999089075675e-06 2.0327785006428060e-04
63 5.9965201307192412e-06 -1.4417487198137019e-05 2.1701363338057233e-04
64 2.5467117753122122e-05 7.6999011192426708e-06 2.3486955641782012e-04
65 1.0698390276371038e-05 -1.1774156101760520e-05 2.4187697889279115e-04
66 -2.8254318948270260e-06 5.7684762812982722e-06 2.4563666217578732e-04
67 -2.3896129566642195e-06 2.9737377616339259e-06 2.5085336402891676e-04
68 -6.9567411319628906e-07 9.2707867572084484e-06 2.4888772066816863e-04
69 -2.8415815974485308e-05 2.4068024037825042e-06 2.2385414635076636e-04
70 -1.1167559947296824e-05 1.9025450022932444e-05 2.3359012266585568e-04
71 -7.9960409628123075e-06 1.7999505263138012e-05 2.2355204549397658e-04
72 -1.2436722993288791e-05 -1.9230571288135092e-05 2.0327783702939829e-04
73 -1.5484078610047199e-05 2.0157960746763395e-06 2.1701362338707176e-04
74 1.0123255211892732e-10 7.3265569620993105e-11 2.0362964817690412e-04
75 1.2123770098756342e-05 -2.5812191769027124e-05 2.2385414534038919e-04
76 -1.0892535596825597e-05 -1.9184101893514904e-05 2.3359012254432011e-04
77 1.0823281277181593e-05 -1.4513490728511822e-05 2.2526033878630727e-04
78 7.1485398494292622e-06 -4.0745858657402464e-06 2.5260392171480529e-04
79 5.9334574618328674e-07 -9.5951140992916811e-06 2.5793054260943700e-04
80 1.9586131344860147e-05 -2.0747862123197117e-06 2.2355205389452474e-04
81 2.2799020137845143e-05 -7.9524957767749627e-06 2.3796142806186424e-04
82 -1.8268365262577002e-06 -1.8684517014081798e-05 2.4553105248699143e-04
83 1.4347627597245633e-05 -4.7621524463376625e-06 2.4542247251297267e-04
84 -7.1028808855607928e-06 -4.1533378272342103e-06 2.5260391710675291e-04
85 -8.6062046758017844e-06 4.2838871719019333e-06 2.5793053863959161e-04
86 -6.1810840663356254e-06 5.2017238723233818e-06 2.4735179917325956e-04
87 -1.8286500992159048e-05 -1.5768097485344486e-05 2.3796141924298039e-04
88 -1.5267770244954001e-05 1.0924535482469229e-05 2.4553104569738154e-04
89 -1.7980607170403040e-05 -2.1162960782925206e-06 2.2526033047750533e-04
90 -6.0651708903198304e-06 -2.5904946172364052e-05 2.3486954022514944e-04
91 -1.5545838304467619e-05 -3.3778137322750137e-06 2.4187696618421410e-04
92 -1.1589798832621642e-05 -1.5924507365436203e-05 2.2355203527829097e-04
93 -3.5827235845787399e-06 -5.3311151469179484e-06 2.4563666109359380e-04
94 -1.3803236135238026e-06 -3.5563200352830789e-06 2.5085336394483265e-04
95 -1.4140745792942615e-06 -7.9538187820581807e-06 2.4735180111196326e-04
96 -4.5122362295220474e-06 2.3720796303660496e-05 2.3796143803407263e-04
97 1.7094887410634677e-05 7.7601871477850554e-06 2.4553106083520998e-04
98 2.6400362111069378e-06 7.2836791877826400e-06 2.5651570551912280e-04
99 4.9879207056172500e-06 -5.9279963264934037e-06 2.5651569749734777e-04
100 -4.5378918834368633e-08 8.2281177954057638e-06 2.5260392555161311e-04
101 8.0131287541676798e-06 5.3114331945923289e-06 2.5793054580243923e-04
102 -7.6276761118143342e-06 -1.3554826982308704e-06 2.5651569601377626e-04
103 6.4084333590464961e-06 -4.3716754008840982e-07 2.4563666478055458e-04
104 3.7702129338748602e-06 5.8278860549344075e-07 2.5085336671471230e-04
105 -1.1297884499999829e-05 -1.0044149412064061e-05 2.4542246449476564e-04
106 9.2004403207122130e-11 6.2811801070888396e-11 2.4913125797630534e-04
107 9.1717959225164352e-11 6.8953884760964441e-11 2.5277078801429936e-04
108 -7.6807012481742553e-06 -5.2378462413385891e-06 2.4888771591077114e-04
109 -3.0494638031625247e-06 1.4806505004373904e-05 2.4542247511783540e-04
110 7.1576190287723118e-06 1.6629998607114480e-05 2.2526035128969037e-04
111 1.6292333874229898e-05 2.3405604350921274e-05 2.2385416531162325e-04
112 2.2060386809079262e-05 1.5885713229436113e-07 2.3359013792846467e-04
113 7.5954409222255261e-06 2.7522986275938655e-06 2.4735181133204802e-04
114 8.3766491655752810e-06 -4.0327386895663267e-06 2.4888772385614055e-04
