LAMMPS data file via write_data, version 30 Mar 2018, timestep = 1554

76 atoms
2 atom types

0.0000000000000000e+00 1.0722891509600000e+01 xlo xhi
0.0000000000000000e+00 9.2862961617999993e+00 ylo yhi
0.0000000000000000e+00 1.0000000000000000e+02 zlo zhi
5.3614462528000004e+00 0.0000000000000000e+00 0.0000000000000000e+00 xy xz yz

Masses

1 12.011
2 12.011

Atoms # atomic

1 1 9.3121836823464292e+00 1.6380381928941906e-01 9.9902675207105133e+01 -1 1 -1
2 1 8.4721145441533952e-01 1.1398062915974165e+00 9.9902675278593620e+01 0 1 -1
3 1 3.1045075815064500e+00 2.1166923309116128e+00 9.9925078287966087e+01 0 1 -1
4 1 1.2133476155375272e+01 6.0284085356228214e+00 9.9932135732911334e+01 -1 0 -1
5 1 1.4390076387769341e+01 7.0063097034051811e+00 9.9915365151759573e+01 -1 0 -1
6 1 1.3826451138607780e+01 8.3101534301405788e+00 9.9911887331207510e+01 -1 0 -1
7 1 5.9249409240272612e+00 7.9826858632169841e+00 9.9902675228571937e+01 0 0 -1
8 1 1.6084337189194020e+01 9.2862961347072055e+00 9.9897367100678892e+01 -1 0 -1
9 1 8.1831022121856591e+00 8.9590165539528570e+00 9.9915365251062013e+01 0 0 -1
10 1 2.2579011820185961e+00 9.7635507237638119e-01 9.9911520957697007e+01 0 1 -1
11 1 5.0795404246773748e+00 6.5112324970645630e-01 9.9931913123171284e+01 0 1 -1
12 1 4.5152680481681955e+00 1.9545418927486433e+00 9.9931463421682935e+01 0 1 -1
13 1 7.3375275728501084e+00 1.6302364919580410e+00 9.9925078210547781e+01 0 1 -1
14 1 1.1852589854300343e+01 3.5838011516581174e+00 9.9923763946818028e+01 -1 0 -1
15 1 1.1288025857136850e+01 4.8873585318714241e+00 9.9933303845753954e+01 -1 0 -1
16 1 3.3855642869100677e+00 4.5617230802018067e+00 9.9931913105692658e+01 0 0 -1
17 1 1.3544325897410971e+01 5.8656962375399919e+00 9.9928189105593418e+01 -1 0 -1
18 1 5.6423008995824171e+00 5.5393671617711266e+00 9.9925078206363082e+01 0 0 -1
19 1 5.0780430372560712e+00 6.8427184127609904e+00 9.9911520864801034e+01 0 0 -1
20 1 7.9002591605026335e+00 6.5160477304972071e+00 9.9923763911891868e+01 0 0 -1
21 1 7.3357530065482166e+00 7.8189809178944571e+00 9.9911887410068488e+01 0 0 -1
22 1 1.0158289503492728e+01 7.4936941258450780e+00 9.9932135757458269e+01 0 0 -1
23 1 9.5937777067385426e+00 8.7968820220263613e+00 9.9928189167247709e+01 0 0 -1
24 1 1.2415824802176321e+01 8.4727432637477023e+00 9.9923763858167135e+01 0 0 -1
25 1 6.4902662971344691e+00 4.8988924377937282e-01 9.9927578748100984e+01 0 1 -1
26 1 8.7483918203235120e+00 1.4672225996317663e+00 9.9911520888936565e+01 0 1 -1
27 1 1.1006469656686908e+01 2.4434578987969244e+00 9.9911887434376638e+01 -1 0 -1
28 1 2.5405684984111652e+00 3.4206157160904525e+00 9.9927578812931955e+01 0 0 -1
29 1 5.3614453510647344e+00 3.0954319966584314e+00 9.9936405555600118e+01 0 0 -1
30 1 4.7964941532801122e+00 4.3986880585710031e+00 9.9931463382751517e+01 0 0 -1
31 1 7.6192313397100708e+00 4.0734496601405379e+00 9.9931913105330338e+01 0 0 -1
32 1 7.0535012375873247e+00 5.3757911329552934e+00 9.9927578773050271e+01 0 0 -1
33 1 9.8769081531201870e+00 5.0504894907945221e+00 9.9932135769108342e+01 0 0 -1
34 1 9.3114549850816477e+00 6.3531959039260695e+00 9.9933303843124492e+01 0 0 -1
35 1 1.1569192953290312e+01 7.3320378260762373e+00 9.9933303798600207e+01 0 0 -1
36 1 6.7725738292483531e+00 2.9330661418340100e+00 9.9931463387935906e+01 0 0 -1
37 1 9.5954952199626202e+00 2.6072658841970369e+00 9.9915365223343372e+01 0 0 -1
38 1 9.0305701908998905e+00 3.9100139981043651e+00 9.9928189164020694e+01 0 0 -1
39 2 1.2698972694613357e+01 7.6560605620663580e+00 3.3749218180673717e+00 -1 0 0
40 2 1.4673628957669596e+01 9.1224932366567693e+00 3.3973247927994805e+00 -1 0 0
41 2 1.1286385361148138e+01 1.3036111911863646e+00 3.3973247207306274e+00 -1 1 0
42 2 1.1003745608439402e+01 3.7469298929873500e+00 3.3749217188393055e+00 -1 0 0
43 2 1.2980676206268997e+01 5.2128473930962018e+00 3.3680869013535562e+00 -1 0 0
44 2 1.2134018794868538e+01 6.3532309701583065e+00 3.3685366283183980e+00 -1 0 0
45 2 4.2340487268816016e+00 6.6790311711313848e+00 3.3846348481057769e+00 0 0 0
46 2 1.4109836935877569e+01 7.8190745129858081e+00 3.3884791529332223e+00 -1 0 0
47 2 6.2086566267784047e+00 8.1464907640751321e+00 3.3973247700991882e+00 0 0 0
48 2 1.0722889953710203e+01 9.8049919075441519e-07 3.4026328986211301e+00 -1 1 0
49 2 2.8216550364302844e+00 3.2728050216964810e-01 3.3846347504844339e+00 0 1 0
50 2 1.9743059323336136e+00 1.4673161969737385e+00 3.3881125506311864e+00 0 1 0
51 2 4.7968424879063729e+00 1.7926029305091973e+00 3.3678642289499594e+00 0 1 0
52 2 1.0439487579170379e+01 2.4435787023054134e+00 3.3884790545355434e+00 -1 0 0
53 2 2.5388122516996661e+00 2.7702493212253239e+00 3.3762360461912979e+00 0 0 0
54 2 1.2414945942168531e+01 3.9105059792697419e+00 3.3724211859175504e+00 -1 0 0
55 2 4.5154614057083133e+00 4.2358075640269375e+00 3.3678642600242661e+00 0 0 0
56 2 3.6691235427876743e+00 5.3762831149213559e+00 3.3718108903462594e+00 0 0 0
57 2 6.4911432615041189e+00 5.7024959085083164e+00 3.3762361167302171e+00 0 0 0
58 2 5.6450231596284990e+00 6.8428392165136618e+00 3.3881126485151674e+00 0 0 0
59 2 8.4659526535320015e+00 7.1696047288563038e+00 3.3749217561166103e+00 0 0 0
60 2 7.6193463493620293e+00 8.3099420438734786e+00 3.3884790789979800e+00 0 0 0
61 2 1.0440985652043963e+01 8.6351738081644278e+00 3.3680868917290838e+00 0 0 0
62 2 4.2323305285228070e+00 4.8941509501239794e-01 3.3718108241215199e+00 0 1 0
63 2 7.0543776770997786e+00 8.1355379378432591e-01 3.3762361181024945e+00 0 1 0
64 2 6.2077459363381671e+00 1.9542592930738176e+00 3.3666961732505296e+00 0 1 0
65 2 3.9500080737549803e+00 2.9331012120645252e+00 3.3666961462325036e+00 0 0 0
66 2 6.7720293015449329e+00 3.2578885248415776e+00 3.3678642494482420e+00 0 0 0
67 2 5.9265791050886278e+00 4.3989385865660928e+00 3.3666961909386228e+00 0 0 0
68 2 8.7470091020893044e+00 4.7245739810231129e+00 3.3680868706227898e+00 0 0 0
69 2 7.9020134114714375e+00 5.8656814032057856e+00 3.3724212276084748e+00 0 0 0
70 2 1.0722890320514077e+01 6.1908650605682718e+00 3.3635944436998728e+00 0 0 0
71 2 9.8767131167125974e+00 7.3317552229857252e+00 3.3685365983377102e+00 0 0 0
72 2 1.1851711518917291e+01 8.7964078706259841e+00 3.3724212502898645e+00 0 0 0
73 2 8.4650040114459149e+00 9.7614368561041875e-01 3.3881126230992176e+00 0 1 0
74 2 9.0286294226453236e+00 2.2799873535742021e+00 3.3846347731435413e+00 0 0 0
75 2 8.1828790399140239e+00 3.4206008823889547e+00 3.3718108465712966e+00 0 0 0
76 2 1.0157938963810976e+01 4.8876090571104482e+00 3.3685365788735600e+00 0 0 0

Velocities

1 1.7327610368617363e-07 5.1433140259461018e-06 -1.2852236092430514e-05
2 4.4106301047601457e-06 -2.7732573007221971e-06 -1.2852258233704583e-05
3 -7.7073483277980503e-06 4.1872763939105959e-06 -1.4865691536769169e-05
4 -4.6329198500987013e-06 1.7842421110815269e-05 -1.5426909977117961e-05
5 -8.2743747993425076e-06 -1.0007442149821792e-05 -1.3890820072855452e-05
6 -1.1160148211117397e-05 1.8230285818410546e-06 -1.3588198604595976e-05
7 -4.5759545564633226e-06 -2.3559242953118507e-06 -1.2852706101615073e-05
8 2.6332576609550034e-08 -3.6199572514562823e-08 -1.2385001184569325e-05
9 1.2763708368518146e-05 -2.2197911608123538e-06 -1.3890812846075304e-05
10 -4.3218585443370247e-06 5.8843824035480046e-06 -1.3660423938878856e-05
11 -1.4459501562267247e-06 8.9091122505523749e-06 -1.5469590186961447e-05
12 7.0521234255319633e-06 -5.5542497213078443e-06 -1.5342717473195310e-05
13 2.7650073812054412e-07 -8.7306436852161034e-06 -1.4865979634576429e-05
14 -6.6400639295221468e-06 -1.0258221322530348e-05 -1.4809890250536782e-05
15 -1.8666890094589377e-05 -5.0930624897671607e-07 -1.5575675041115371e-05
16 8.4758713294607089e-06 -3.1808995593628165e-06 -1.5469492358906355e-05
17 7.7098263708192198e-06 1.0555608298090596e-05 -1.5230458994682541e-05
18 7.4196775396263337e-06 4.5972976647653883e-06 -1.4865894768134047e-05
19 7.2086061651549733e-06 7.3671346743372493e-07 -1.3659517750917469e-05
20 -5.5297937911797607e-06 1.0825806276587801e-05 -1.4809198894604081e-05
21 4.0494242083628336e-06 -1.0527361119074940e-05 -1.3588276815562696e-05
22 -1.3139815780379474e-05 -1.2897371070463546e-05 -1.5427051382039997e-05
23 -1.2965457827011576e-05 1.3713731152453131e-06 -1.5230008302922213e-05
24 1.2165617558431818e-05 -6.0969593248159522e-07 -1.4809189275691027e-05
25 3.3437988822168066e-06 6.8953811048803909e-06 -1.5085188151141518e-05
26 -2.9790817375306036e-06 -6.6501261773432013e-06 -1.3660020327628664e-05
27 7.1430826216161383e-06 8.8159786039182603e-06 -1.3587936450968694e-05
28 4.3152263998991131e-06 -6.4012121836743234e-06 -1.5085147022511145e-05
29 -5.8147607190135530e-09 -2.9472217103885736e-08 -1.5868309826702672e-05
30 -8.3655538943684109e-06 -3.2833921967320616e-06 -1.5342894121002487e-05
31 -7.0023344446960831e-06 -5.7120469451523787e-06 -1.5469640924458577e-05
32 -7.6424258218595549e-06 -5.5321048795285096e-07 -1.5085055740276044e-05
33 1.7770543468228280e-05 -4.9203119573618002e-06 -1.5427050928270630e-05
34 8.8522808622756933e-06 1.6413951958416989e-05 -1.5575837764548742e-05
35 9.7808699994304799e-06 -1.5901107819238180e-05 -1.5575724562455003e-05
36 1.3123498008019661e-06 8.8789103148116445e-06 -1.5342777306959392e-05
37 -4.5024961126196096e-06 1.2194237360622113e-05 -1.3890422585271386e-05
38 5.3007182303937079e-06 -1.1955920973911381e-05 -1.5230427433241643e-05
39 2.3884194476544340e-07 8.8564381989864532e-06 1.4865885693257968e-05
40 6.3304313908440910e-08 -5.2395709121734733e-06 1.2851405247574878e-05
41 -4.4604736810998352e-06 2.3407110781674517e-06 1.2852504122372426e-05
42 7.3340516772001223e-06 -4.5900855580598071e-06 1.4866041337442702e-05
43 -7.0379910259508057e-06 5.6497766121290251e-06 1.5469689716864189e-05
44 1.1962174399608159e-06 -8.9353522992418134e-06 1.5342195021690823e-05
45 -4.3552912397755177e-06 -1.2205992022453393e-05 1.3890866594533813e-05
46 -2.9651908089761806e-06 6.7879437095016077e-06 1.3660734921123259e-05
47 4.3016275242880572e-06 2.8798000348574119e-06 1.2853294172232620e-05
48 1.5516761714484458e-07 -5.4773310797103660e-08 1.2384996767610095e-05
49 1.2755713133668561e-05 2.1208158712122332e-06 1.3891073058089417e-05
50 3.9349852221186697e-06 1.0525652998788548e-05 1.3589051300981637e-05
51 -1.3064025542826567e-05 1.2937577567197825e-05 1.5426876744672662e-05
52 7.1559569282274811e-06 -6.7773889720661161e-07 1.3659177555081953e-05
53 -5.5181434204814807e-06 -1.0782045890125411e-05 1.4808760644849666e-05
54 -7.5590579707796980e-06 5.9079778537852678e-07 1.5085004099640290e-05
55 1.7687855855391313e-05 4.9515665702929080e-06 1.5427156002907820e-05
56 5.3469680124761700e-06 1.1885655497941912e-05 1.5230057944878427e-05
57 -6.6045662855514471e-06 1.0180403306453130e-05 1.4808957129983022e-05
58 7.0016922792233057e-06 -8.8156224917093726e-06 1.3587787502747261e-05
59 -7.6406617111216501e-06 -4.1304945740701772e-06 1.4865589522617457e-05
60 -4.2285304724044665e-06 -5.8179869934493423e-06 1.3659737512845515e-05
61 -1.5870580444444912e-06 -8.9144082339306481e-06 1.5469403050021510e-05
62 -1.2943306869837475e-05 -1.4559783994026134e-06 1.5230034087101192e-05
63 1.2259836811305317e-05 5.4835684428023223e-07 1.4810315114341249e-05
64 9.6958125260891167e-06 1.5960460309513667e-05 1.5575363173410045e-05
65 8.8411404310397730e-06 -1.6400392640863486e-05 1.5575889501868842e-05
66 -4.6761342121930854e-06 -1.7844014940837274e-05 1.5426877112928293e-05
67 -1.8592898241538096e-05 5.3728252751659921e-07 1.5575900731918284e-05
68 8.4128845018407767e-06 3.1792480286421900e-06 1.5469701065017102e-05
69 4.2922847245501458e-06 6.3287537566542904e-06 1.5085061413479549e-05
70 1.2061242381362096e-07 -2.4128604320665141e-08 1.5868318065681884e-05
71 6.9757408764832438e-06 5.6501755940660312e-06 1.5343134028914647e-05
72 3.4923657831607159e-06 -6.9362767255247777e-06 1.5085532465274380e-05
73 -1.1246704439947174e-05 -1.8788311052659391e-06 1.3587986230641253e-05
74 -8.2333292057671141e-06 1.0080568650450379e-05 1.3890410237828263e-05
75 7.7598530602236273e-06 -1.0550149076448323e-05 1.5230595634455307e-05
76 -8.3017320304331955e-06 3.2542289021540365e-06 1.5343068336963162e-05
