LAMMPS data file via write_data, version 30 Mar 2018, timestep = 1084

762 atoms
6 atom types

0.0000000000000000e+00 3.5115794999999999e+01 xlo xhi
0.0000000000000000e+00 3.0411171000000000e+01 ylo yhi
0.0000000000000000e+00 1.0000000000000000e+02 zlo zhi
1.7557897000000001e+01 0.0000000000000000e+00 0.0000000000000000e+00 xy xz yz

Masses

1 95.94
2 32.066
3 32.066
4 95.94
5 32.066
6 32.066

Atoms # atomic

1 2 3.3320731367894354e+01 6.9380394649220398e-02 4.1945126455246511e+00 -1 1 0
2 3 3.3312757884105046e+01 7.0140911432389694e-02 7.3132628676506588e+00 -1 1 0
3 2 9.5745689872067374e-01 1.5195250919188663e+00 4.1945123271683054e+00 0 1 0
4 3 9.6210265800196815e-01 1.5260504469553240e+00 7.3132625472963024e+00 0 1 0
5 2 4.7992286036202543e+01 2.5955590047669578e+01 4.1784119628276652e+00 -1 0 0
6 3 4.7993788610498399e+01 2.5943490714518010e+01 7.2971283828409756e+00 -1 0 0
7 2 5.0758719893783763e+01 2.7384878898411692e+01 4.1879756897446576e+00 -1 0 0
8 3 5.0757469852094708e+01 2.7370988525142351e+01 7.3066923486926285e+00 -1 0 0
9 1 4.9909028124341560e+01 2.8965189692301131e+01 5.7507912849113261e+00 -1 0 0
10 2 1.8394955459112197e+01 2.8821870619022043e+01 4.1945125328486688e+00 0 0 0
11 3 1.8398283897411698e+01 2.8814585213329647e+01 7.3132627549849563e+00 0 0 0
12 1 5.2673509456498195e+01 3.0411039474679988e+01 5.7565754056024767e+00 -1 0 0
13 2 2.1135840297625446e+01 3.0265863007353609e+01 4.1879751176966087e+00 0 0 0
14 3 2.1148495043244186e+01 3.0271725979638788e+01 7.3066917739316857e+00 0 0 0
15 1 2.7562179513876135e+00 1.4559226894865478e+00 5.7481454799581693e+00 0 1 0
16 2 6.3154641487132315e+00 1.3005739699560601e+00 4.1635801573870861e+00 0 1 0
17 3 6.3380365888787997e+00 1.3220303313842066e+00 7.2820896423827302e+00 0 1 0
18 2 4.5091709974107161e+01 2.1447620466920174e+01 4.1605539357805199e+00 -1 0 0
19 3 4.5120078869637261e+01 2.1430467909882154e+01 7.2791994507971785e+00 -1 0 0
20 2 4.7870622852825448e+01 2.2870494575900896e+01 4.1553979687352998e+00 -1 0 0
21 3 4.7887916783231148e+01 2.2844635158758191e+01 7.2739251141071977e+00 -1 0 0
22 1 4.7022698251844858e+01 2.4441007567187071e+01 5.7306973969581776e+00 -1 0 0
23 2 1.5526335155051250e+01 2.4291175054532406e+01 4.1635812287629497e+00 0 0 0
24 3 1.5533630340349353e+01 2.4260898939746053e+01 7.2820907223055622e+00 0 0 0
25 1 4.9793916881183854e+01 2.5863567231785616e+01 5.7376327130492264e+00 -1 0 0
26 2 1.8283003320461020e+01 2.5715992083257238e+01 4.1771563430054366e+00 0 0 0
27 3 1.8286270865285474e+01 2.5690229711240853e+01 7.2957577732495658e+00 0 0 0
28 1 1.7440493889735425e+01 2.7295899144648832e+01 5.7481460682210033e+00 0 0 0
29 2 2.1024466912559078e+01 2.7147726935141591e+01 4.1848172932343335e+00 0 0 0
30 3 2.1029606570659254e+01 2.7135664205957749e+01 7.3035240822482468e+00 0 0 0
31 1 2.0192097345958643e+01 2.8739852903090434e+01 5.7507909711947214e+00 0 0 0
32 2 2.3756857571373146e+01 2.8584704894377154e+01 4.1784114477209995e+00 0 0 0
33 3 2.3766584581018094e+01 2.8592056377093186e+01 7.2971278675799418e+00 0 0 0
34 1 2.2935736424245640e+01 3.0190974811605482e+01 5.7376319545515333e+00 0 0 0
35 2 2.6489460235939514e+01 3.0021888991469936e+01 4.1553971579576947e+00 0 0 0
36 3 2.6503208015240439e+01 3.0049796283512563e+01 7.2739242976671603e+00 0 0 0
37 1 8.1196772567243194e+00 1.2300799803264586e+00 5.7067346054935273e+00 0 1 0
38 2 1.1673736224930309e+01 1.0427649433239503e+00 4.1185735633079883e+00 0 1 0
39 3 1.1688074765328819e+01 1.0878236365322513e+00 7.2366329542416885e+00 0 1 0
40 1 1.0866796140729118e+01 2.6717797393862948e+00 5.6619629192475722e+00 0 1 0
41 2 1.4432448579531515e+01 2.4670829343009952e+00 4.0760318553034214e+00 0 1 0
42 3 1.4441022021602056e+01 2.5213872437442832e+00 7.1934580367818777e+00 0 1 0
43 2 4.2182788149628408e+01 1.6919244500580287e+01 4.1570491929846671e+00 -1 0 0
44 3 4.2228710316717752e+01 1.6902165947292698e+01 7.2755492051608375e+00 -1 0 0
45 2 4.4958232730309625e+01 1.8356652860886328e+01 4.1322302796808161e+00 -1 0 0
46 3 4.5002192563821602e+01 1.8331934525899708e+01 7.2504612342862647e+00 -1 0 0
47 1 4.4133122249652970e+01 1.9930001311939503e+01 5.7173545285571441e+00 -1 0 0
48 2 1.2623930817295136e+01 1.9779679726564790e+01 4.1185744917294409e+00 0 0 0
49 3 1.2655782900800093e+01 1.9744732767726934e+01 7.2366338942223702e+00 0 0 0
50 1 4.6906821775487899e+01 2.1349439331195601e+01 5.7044201316146186e+00 -1 0 0
51 2 1.5402665685264219e+01 2.1194997632007652e+01 4.1225818831545205e+00 0 0 0
52 3 1.5418604968540466e+01 2.1152188476807769e+01 7.2406178873445528e+00 0 0 0
53 1 1.4563179142530968e+01 2.2763927642223344e+01 5.7067357555433427e+00 0 0 0
54 2 1.8168894319946880e+01 2.2610135566488783e+01 4.1408911283803214e+00 0 0 0
55 3 1.8172340656890313e+01 2.2567483269669300e+01 7.2590892974184404e+00 0 0 0
56 1 1.7327288034625667e+01 2.4183357542207130e+01 5.7207734415672595e+00 0 0 0
57 2 2.0917848197349382e+01 2.4030761037354328e+01 4.1627126761504103e+00 0 0 0
58 3 2.0915506638055682e+01 2.3998832105752552e+01 7.2811907853407947e+00 0 0 0
59 1 2.0079182919739559e+01 2.5613764404079660e+01 5.7358023914524541e+00 0 0 0
60 2 2.3652198619342766e+01 2.5458958231174066e+01 4.1768275406168289e+00 0 0 0
61 3 2.3649379714038247e+01 2.5446290013765946e+01 7.2955359209902664e+00 0 0 0
62 1 2.2819448387718381e+01 2.7055156258853941e+01 5.7410546473060720e+00 0 0 0
63 2 2.6379992798963798e+01 2.6892588381647258e+01 4.1765717987982836e+00 0 0 0
64 3 2.6379031594862138e+01 2.6903172525302992e+01 7.2953600641374798e+00 0 0 0
65 1 2.5553318322957516e+01 2.8502308581997394e+01 5.7306968913591980e+00 0 0 0
66 2 2.9111161947150343e+01 2.8326716799925268e+01 4.1605535919521390e+00 0 0 0
67 3 2.9111831832495135e+01 2.8359861840504191e+01 7.2791991037305745e+00 0 0 0
68 1 2.8288633205486285e+01 2.9947740511793096e+01 5.7044194156216372e+00 0 0 0
69 2 3.1854757434982581e+01 2.9756605766610143e+01 4.1322298932836041e+00 0 0 0
70 3 3.1854183892911031e+01 2.9807035622438509e+01 7.2504608405358741e+00 0 0 0
71 1 1.3475129665901642e+01 9.7374733432190053e-01 5.6670017949367200e+00 0 1 0
72 2 1.7058653103603181e+01 7.6928504106633311e-01 4.1001849257877296e+00 0 1 0
73 3 1.7051148888593687e+01 8.2744108142291728e-01 7.2178878678463576e+00 0 1 0
74 1 1.6233458923325639e+01 2.3996030471813645e+00 5.6284619660160864e+00 0 1 0
75 2 1.9838831375993962e+01 2.1888931309416497e+00 4.0767167414598235e+00 0 1 0
76 3 1.9818102255005272e+01 2.2431393855823738e+00 7.1940571410151168e+00 0 1 0
77 2 3.9270418077939546e+01 1.2349766043494926e+01 4.1636137846701162e+00 -1 0 0
78 3 3.9308751039638210e+01 1.2340644002572212e+01 7.2821711611109947e+00 -1 0 0
79 2 4.2035740094487572e+01 1.3810292023832647e+01 4.1338002903586064e+00 -1 0 0
80 3 4.2088139554088016e+01 1.3796508301172869e+01 7.2519403897793699e+00 -1 0 0
81 1 4.1233267098374043e+01 1.5395139365067534e+01 5.7179332458077710e+00 -1 0 0
82 2 9.6946322665385321e+00 1.5252945475222232e+01 4.1001850483905864e+00 0 0 0
83 3 9.7487487162870163e+00 1.5230365875461951e+01 7.2178879943189571e+00 0 0 0
84 1 4.4004627078293332e+01 1.6833552389453672e+01 5.6891472015695479e+00 -1 0 0
85 2 1.2478070681000496e+01 1.6678406004847684e+01 4.0760325756257911e+00 0 0 0
86 3 1.2520812334371755e+01 1.6643828617495327e+01 7.1934587679593553e+00 0 0 0
87 1 1.1663462951761996e+01 1.8254136004772466e+01 5.6670024966415742e+00 0 0 0
88 2 1.5263960341736814e+01 1.8092003031634707e+01 4.0721010196583523e+00 0 0 0
89 3 1.5287016174548782e+01 1.8045870569512584e+01 7.1894720548341988e+00 0 0 0
90 1 1.4438168739768130e+01 1.9664002857457806e+01 5.6619642293209758e+00 0 0 0
91 2 1.8042239402879144e+01 1.9501300750795956e+01 4.0904214109913921e+00 0 0 0
92 3 1.8045517233406986e+01 1.9449507179170993e+01 7.2079711313666976e+00 0 0 0
93 1 1.7207108799466237e+01 2.1073249984856673e+01 5.6760693182436546e+00 0 0 0
94 2 2.0804407504369653e+01 2.0913635674753213e+01 4.1228446092982418e+00 0 0 0
95 3 2.0794426610384839e+01 2.0866416882505458e+01 7.2408127550078136e+00 0 0 0
96 1 1.9964596409848241e+01 2.2490794010112023e+01 5.7014336292319507e+00 0 0 0
97 2 2.3548428257439646e+01 2.2334251744482586e+01 4.1562346920819326e+00 0 0 0
98 3 2.3533268896667067e+01 2.2302088785516137e+01 7.2746848913912991e+00 0 0 0
99 1 2.2708435130202091e+01 2.3921105269641608e+01 5.7255879344561844e+00 0 0 0
100 2 2.6279377189044240e+01 2.3764498082833523e+01 4.1795019268304525e+00 0 0 0
101 3 2.6264838114322067e+01 2.3754135090730127e+01 7.2982886640808191e+00 0 0 0
102 1 2.5441498590140803e+01 2.5362849844290714e+01 5.7385167658327187e+00 0 0 0
103 2 2.9006473106140728e+01 2.5201244859457322e+01 4.1869040535982549e+00 0 0 0
104 3 2.8995300370511735e+01 2.5214486234336505e+01 7.3058165656108107e+00 0 0 0
105 1 2.8170771330966382e+01 2.6810148921811845e+01 5.7356217501587281e+00 0 0 0
106 2 3.1739720216752421e+01 2.6638666690117677e+01 4.1779190383825018e+00 0 0 0
107 3 3.1731738369234549e+01 2.6672852847037397e+01 7.2967289912770887e+00 0 0 0
108 1 3.0904752530986215e+01 2.8255365330917932e+01 5.7173542847778505e+00 0 0 0
109 2 3.4487312192986927e+01 2.8071704761141675e+01 4.1570491113901200e+00 0 0 0
110 3 3.4479141446011994e+01 2.8120013902331781e+01 7.2755491206972280e+00 0 0 0
111 1 3.3650603909782618e+01 2.9692309445777891e+01 5.6891469986144703e+00 0 0 0
112 2 3.7253268534413500e+01 2.9498833562802051e+01 4.1338004504188870e+00 0 0 0
113 3 3.7239005598210014e+01 2.9551104421682140e+01 7.2519405519716802e+00 0 0 0
114 1 1.8854011339525695e+01 7.0757863334817794e-01 5.6614709859160097e+00 0 1 0
115 2 2.2477467329826705e+01 5.1128605195468468e-01 4.1198617717752128e+00 0 1 0
116 3 2.2452106221753638e+01 5.5694334385046707e-01 7.2377996119406012e+00 0 1 0
117 1 2.1629876833255938e+01 2.1262544521598357e+00 5.6466335014779219e+00 0 1 0
118 2 2.5267274362234172e+01 1.9368508180403887e+00 4.1228440176297587e+00 0 1 0
119 3 2.5231371640218658e+01 1.9691035468006659e+00 7.2408121534728478e+00 0 1 0
120 2 3.9114958006457456e+01 9.2263732107833221e+00 4.1562334077335104e+00 -1 0 0
121 3 3.9150392477922132e+01 9.2293264683643503e+00 7.2746835878025582e+00 -1 0 0
122 1 3.8316590617583572e+01 1.0824356479141159e+01 5.7269634059822394e+00 -1 0 0
123 2 6.7617914394123240e+00 1.0689114903580016e+01 4.1198610852801432e+00 0 0 0
124 3 6.8140127033011000e+00 1.0688249096122410e+01 7.2377989155353522e+00 0 0 0
125 1 4.1086908014834719e+01 1.2285927892519210e+01 5.6985756479132963e+00 -1 0 0
126 2 9.5339600220169629e+00 1.2135436747329367e+01 4.0767162630697955e+00 0 0 0
127 3 9.5913031928105497e+00 1.2126264891452745e+01 7.1940566570970867e+00 0 0 0
128 1 8.7435137282300364e+00 1.3728972738715393e+01 5.6614708118306929e+00 0 0 0
129 2 1.2317159699141163e+01 1.3564123659250715e+01 4.0404004555626241e+00 0 0 0
130 3 1.2365292328064921e+01 1.3542319107052231e+01 7.1573399128303699e+00 0 0 0
131 1 1.1519126049928014e+01 1.5152425079398247e+01 5.6284622979931038e+00 0 0 0
132 2 1.5107727618978959e+01 1.4978937079512118e+01 4.0246254283849545e+00 0 0 0
133 3 1.5135024343800250e+01 1.4942664917007752e+01 7.1414398874792981e+00 0 0 0
134 1 1.4296560875432540e+01 1.6561267153374967e+01 5.6128704535330112e+00 0 0 0
135 2 1.7896970272400537e+01 1.6386583878679723e+01 4.0365780592956106e+00 0 0 0
136 3 1.7899577464091998e+01 1.6338621636870794e+01 7.1534864047209306e+00 0 0 0
137 1 1.7071470201837528e+01 1.7964483680156246e+01 5.6219151595752388e+00 0 0 0
138 2 2.0674551922488213e+01 1.7794711761041736e+01 4.0725702187729507e+00 0 0 0
139 3 2.0657444752001808e+01 1.7742968652977890e+01 7.1898610980674196e+00 0 0 0
140 1 1.9837918401425583e+01 1.9372035594362966e+01 5.6522744156758362e+00 0 0 0
141 2 2.3433886163663722e+01 1.9210374346290500e+01 4.1198630529771965e+00 0 0 0
142 3 2.3407025902327870e+01 1.9165582749569555e+01 7.2378009117317319e+00 0 0 0
143 1 2.2591363341936042e+01 2.0791792400571264e+01 5.6918877302568989e+00 0 0 0
144 2 2.6175635743333793e+01 2.0637923099644816e+01 4.1636151083950459e+00 0 0 0
145 3 2.6148569711572577e+01 2.0609287580595481e+01 7.2821725039365788e+00 0 0 0
146 1 2.5331506160273229e+01 2.2226667084607723e+01 5.7269644615401516e+00 0 0 0
147 2 2.8906796366888088e+01 2.2076920154083020e+01 4.1932357744111384e+00 0 0 0
148 3 2.8885513478102403e+01 2.2069053204134537e+01 7.3121624069407494e+00 0 0 0
149 1 2.8062956651558629e+01 2.3673615599791631e+01 5.7480770599276179e+00 0 0 0
150 2 3.1637141212523616e+01 2.3522025075337865e+01 4.2043481774258424e+00 0 0 0
151 3 3.1623683651214819e+01 2.3534797736866771e+01 7.3233936021485775e+00 0 0 0
152 1 3.0793487532710692e+01 2.5125228943430507e+01 5.7516329218443154e+00 0 0 0
153 2 3.4375995320586910e+01 2.4965983487961779e+01 4.1981601995624782e+00 0 0 0
154 3 3.4368762686182706e+01 2.4995294645603156e+01 7.3171361819545906e+00 0 0 0
155 1 3.3531205175116732e+01 2.6573109086290732e+01 5.7393035884850363e+00 0 0 0
156 2 3.7129980849065205e+01 2.6403652999541443e+01 4.1810673415269068e+00 0 0 0
157 3 3.7123978126121472e+01 2.6441945947031442e+01 7.2998349863056253e+00 0 0 0
158 1 3.6281986545883058e+01 2.8011448030068660e+01 5.7179332291218081e+00 0 0 0
159 2 3.9900782424758958e+01 2.7834257750197480e+01 4.1636139050024896e+00 0 0 0
160 3 3.9889515807883846e+01 2.7872015589022773e+01 7.2821712843856465e+00 0 0 0
161 1 3.9047822606610666e+01 2.9439302841161663e+01 5.6985759735046644e+00 0 0 0
162 2 4.2683450129041546e+01 2.9261321784360980e+01 4.1562339776494648e+00 0 0 0
163 3 4.2663175254809012e+01 2.9290531628536129e+01 7.2746841649167839e+00 0 0 0
164 1 2.4268276652412755e+01 4.5022313603108877e-01 5.6918868211163787e+00 0 1 0
165 2 2.7910063246386361e+01 2.8004550822893348e-01 4.1627124717744444e+00 0 1 0
166 3 2.7883582346882196e+01 2.9803773729847283e-01 7.2811905748464829e+00 0 1 0
167 1 2.7053038793804323e+01 1.8755694326045493e+00 5.7014333373372645e+00 0 1 0
168 2 3.0686938321316322e+01 1.7192730239109897e+00 4.1771563696025211e+00 0 1 0
169 3 3.0662993638620005e+01 1.7293244124104712e+00 7.2957577989700582e+00 0 1 0
170 2 3.6208346994513313e+01 4.6338210431168365e+00 4.1848169984476220e+00 -1 0 0
171 3 3.6216224661780245e+01 4.6443036488985214e+00 7.3035237824666464e+00 -1 0 0
172 2 3.8452328374158702e+00 6.0999692104991281e+00 4.1627115387385061e+00 0 0 0
173 3 3.8740556354197033e+00 6.1139060817230799e+00 7.2811896325105767e+00 0 0 0
174 1 3.8160699585302922e+01 7.7054911314631065e+00 5.7255869611841597e+00 -1 0 0
175 2 6.6014630388021054e+00 7.5602887964730714e+00 4.1228427754929928e+00 0 0 0
176 3 6.6473465855776430e+00 7.5752547140049673e+00 7.2408108956667157e+00 0 0 0
177 1 5.8135048222022823e+00 9.1687598420043752e+00 5.6918859549153549e+00 0 0 0
178 2 9.3674585013530134e+00 9.0072917903304024e+00 4.0725680731018441e+00 0 0 0
179 3 9.4208228439082973e+00 9.0183482165297040e+00 7.1898589262861208e+00 0 0 0
180 1 8.5841905210645457e+00 1.0615665021598341e+01 5.6466326699501028e+00 0 0 0
181 2 1.2146610486914906e+01 1.0438252100361989e+01 4.0248535693810483e+00 0 0 0
182 3 1.2193847706741845e+01 1.0439426488747030e+01 7.1416233445619568e+00 0 0 0
183 1 1.1358965221987852e+01 1.2043024705736329e+01 5.6021620308452214e+00 0 0 0
184 2 1.4937501427870743e+01 1.1855506690217499e+01 3.9949907461055174e+00 0 0 0
185 3 1.4965430667016470e+01 1.1842026016340077e+01 7.1115554822375024e+00 0 0 0
186 1 1.4137610305794912e+01 1.3453824213616675e+01 5.5733873628689645e+00 0 0 0
187 2 1.7733437739345604e+01 1.3264572719157458e+01 3.9944206617645577e+00 0 0 0
188 3 1.7734965287637149e+01 1.3235191725565091e+01 7.1109874520744771e+00 0 0 0
189 1 1.6917347722239455e+01 1.4855400705972569e+01 5.5717312114674877e+00 0 0 0
190 2 2.0524224714223671e+01 1.4672415409240553e+01 4.0248554618051626e+00 0 0 0
191 3 2.0501622845597623e+01 1.4630918987172274e+01 7.1416252520235828e+00 0 0 0
192 1 1.9693060770498199e+01 1.6257245198346126e+01 5.5991776257154484e+00 0 0 0
193 2 2.3300354180184144e+01 1.6086444941564221e+01 4.0767184553970548e+00 0 0 0
194 3 2.3263739574341379e+01 1.6041370105317579e+01 7.1940588765000726e+00 0 0 0
195 1 2.2459077833724194e+01 1.7668855238134082e+01 5.6466348777273945e+00 0 0 0
196 2 2.6057828051893946e+01 1.7512820913866118e+01 4.1338022076746821e+00 0 0 0
197 3 2.6019691589715855e+01 1.7474333856330027e+01 7.2519423336431217e+00 0 0 0
198 1 2.5212106012385757e+01 1.9096715808768849e+01 5.6985774640666316e+00 0 0 0
199 2 2.8799976596168207e+01 1.8953641494320653e+01 4.1810686986948777e+00 0 0 0
200 3 2.8769815611967651e+01 1.8929297014253880e+01 7.2998363591948392e+00 0 0 0
201 1 2.7953449200367686e+01 2.0541359796493772e+01 5.7407194895106244e+00 0 0 0
202 2 3.1535002844251679e+01 2.0405239408313534e+01 4.2098177163632791e+00 0 0 0
203 3 3.1517212817707382e+01 2.0397909711486811e+01 7.3288842758355788e+00 0 0 0
204 1 3.0688683415615643e+01 2.1996963499325176e+01 5.7649619815848459e+00 0 0 0
205 2 3.4272263275158764e+01 2.1859745958058401e+01 4.2181711463832485e+00 0 0 0
206 3 3.4266649901592174e+01 2.1868042299695922e+01 7.3373033408919390e+00 0 0 0
207 1 3.3425405596962250e+01 2.3454181706683499e+01 5.7696914385190805e+00 0 0 0
208 2 3.7019588068172872e+01 2.3309252020394688e+01 4.2098169728575128e+00 0 0 0
209 3 3.7022135260286419e+01 2.3328324130581798e+01 7.3288835260668970e+00 0 0 0
210 1 3.6170522568362657e+01 2.4904353623239373e+01 5.7587153359943422e+00 0 0 0
211 2 3.9781409698692393e+01 2.4749504810553816e+01 4.1932349343644679e+00 0 0 0
212 3 3.9785237736736867e+01 2.4771870221227356e+01 7.3121615577469115e+00 0 0 0
213 1 3.8928248849144346e+01 2.6342908100691155e+01 5.7407182978020570e+00 0 0 0
214 2 4.2556604950747783e+01 2.6181127348890730e+01 4.1795013742976037e+00 0 0 0
215 3 4.2554899245063460e+01 2.6198900243971778e+01 7.2982881028008997e+00 0 0 0
216 1 4.1698739620821513e+01 2.7770923431441112e+01 5.7269635934306979e+00 0 0 0
217 2 4.5337639799654546e+01 2.7609100676048378e+01 4.1768274451691516e+00 0 0 0
218 3 4.5328077671155640e+01 2.7617876137686618e+01 7.2955358196904161e+00 0 0 0
219 1 4.4477701830416386e+01 2.9195350516450546e+01 5.7255875816104220e+00 0 0 0
220 2 4.8114022008971908e+01 2.9040399037668436e+01 4.1848174897138550e+00 0 0 0
221 3 4.8101005254510071e+01 2.9041979519961341e+01 7.3035242766577513e+00 0 0 0
222 1 2.9700316752057706e+01 2.1484952957278605e-01 5.7358024025207488e+00 0 1 0
223 1 3.2476432599031760e+01 1.6589544423699727e+00 5.7481460781763225e+00 0 1 0
224 1 3.5245710938921071e+01 3.1169047302066279e+00 5.7507909577393290e+00 -1 0 0
225 2 3.7032023844224655e+00 2.9755107900249218e+00 4.1771554491558804e+00 0 0 0
226 3 3.7238800444917861e+00 2.9912220723541916e+00 7.2957568703175477e+00 0 0 0
227 1 2.8936448582122356e+00 4.5821621329147879e+00 5.7358015779067015e+00 0 0 0
228 2 6.4500075205487377e+00 4.4296173040580795e+00 4.1408896025520878e+00 0 0 0
229 3 6.4852226379353635e+00 4.4539284453785788e+00 7.2590877533537048e+00 0 0 0
230 1 5.6555096138977055e+00 6.0444120558681984e+00 5.7014320568980423e+00 0 0 0
231 2 9.2056651679263108e+00 5.8743477106062167e+00 4.0904195323988040e+00 0 0 0
232 3 9.2488806988751016e+00 5.9030835014504728e+00 7.2079692300215177e+00 0 0 0
233 1 8.4197726065557656e+00 7.4940842001767605e+00 5.6522723653530287e+00 0 0 0
234 2 1.1975724097998830e+01 7.3058987711937444e+00 4.0365763049255223e+00 0 0 0
235 3 1.2015956412061776e+01 7.3321379580623338e+00 7.1534846342264649e+00 0 0 0
236 1 1.1189689132211825e+01 8.9260282776886388e+00 5.5991755974799737e+00 0 0 0
237 2 1.4761231755305792e+01 8.7252805716922381e+00 3.9944195816468180e+00 0 0 0
238 3 1.4785911615036621e+01 8.7412939609639793e+00 7.1109863668567685e+00 0 0 0
239 1 1.3966272530461927e+01 1.0341020521022736e+01 5.5572873897400248e+00 0 0 0
240 2 1.7557715687217041e+01 1.0136924642162773e+01 3.9782188256332498e+00 0 0 0
241 3 1.7557715098984058e+01 1.0136924221149648e+01 7.0947147294631430e+00 0 0 0
242 1 1.6747811899103244e+01 1.1744635643059750e+01 5.5409539115885202e+00 0 0 0
243 2 2.0356158302747893e+01 1.1546805699804501e+01 3.9949918235610276e+00 0 0 0
244 3 2.0330518636832483e+01 1.1529357573952618e+01 7.1115565641450367e+00 0 0 0
245 1 1.9530188872552074e+01 1.3145157155360575e+01 5.5572888079568683e+00 0 0 0
246 2 2.3146034286970171e+01 1.2961779840933167e+01 4.0404022809956546e+00 0 0 0
247 3 2.3103084543982924e+01 1.2930997348981062e+01 7.1573417548903242e+00 0 0 0
248 1 2.2307820948651440e+01 1.4552149714732165e+01 5.6021641048866924e+00 0 0 0
249 2 2.5919859832303935e+01 1.4388544563912676e+01 4.1001870626711714e+00 0 0 0
250 3 2.5873247318423722e+01 1.4352967924821701e+01 7.2178900339150340e+00 0 0 0
251 1 2.5075619907586400e+01 1.5974223603954385e+01 5.6614729573965974e+00 0 0 0
252 2 2.8676735963084354e+01 1.5830997547380074e+01 4.1570508785273690e+00 0 0 0
253 3 2.8638984846637900e+01 1.5799767267541453e+01 7.2755509106533012e+00 0 0 0
254 1 2.7831582705843203e+01 1.7415359510937513e+01 5.7179349367038661e+00 0 0 0
255 2 3.1422027769010320e+01 1.7287455451807517e+01 4.1981612585416901e+00 0 0 0
256 3 3.1400260585232040e+01 1.7266536601706591e+01 7.3171372507999228e+00 0 0 0
257 1 3.0578137306742850e+01 1.8872376554560148e+01 5.7587164355626914e+00 0 0 0
258 2 3.4163974527880683e+01 1.8750739826482853e+01 4.2181714148982961e+00 0 0 0
259 3 3.4159597136396869e+01 1.8741730584846923e+01 7.3373036109781467e+00 0 0 0
260 1 3.3321020099601100e+01 2.0336390350354744e+01 5.7785307992148240e+00 0 0 0
261 2 3.6910597531791005e+01 2.0211461956440893e+01 4.2181710144760531e+00 0 0 0
262 3 3.6920589123376828e+01 2.0212175675628778e+01 7.3373032081346770e+00 0 0 0
263 1 3.6066954259666517e+01 2.1796940717863432e+01 5.7785304016518078e+00 0 0 0
264 2 3.9667734747428696e+01 2.1662404584985218e+01 4.2043477964764771e+00 0 0 0
265 3 3.9685524726061232e+01 2.1667673279847204e+01 7.3233932181552870e+00 0 0 0
266 1 3.8821221286271367e+01 2.3246324092270459e+01 5.7649612922645481e+00 0 0 0
267 2 4.2437316058393989e+01 2.3101019709492025e+01 4.1869037919469152e+00 0 0 0
268 3 4.2454369253211304e+01 2.3104075158121685e+01 7.3058163002214700e+00 0 0 0
269 1 4.1586108211523189e+01 2.4681943696312320e+01 5.7480764731475347e+00 0 0 0
270 2 4.5215302751561481e+01 2.4529946442444476e+01 4.1765719336533040e+00 0 0 0
271 3 4.5224948842372832e+01 2.4525486966864364e+01 7.2953601964860599e+00 0 0 0
272 1 4.4359757180161090e+01 2.6107575687152035e+01 5.7385165819243120e+00 0 0 0
273 1 4.7136362636498255e+01 2.7532184772287440e+01 5.7410548669543360e+00 0 0 0
274 1 5.5083606826542102e+00 2.9141540791932994e+00 5.7207722185973839e+00 0 0 0
275 2 9.0586673439356957e+00 2.7415613219719379e+00 4.1225804675985804e+00 0 0 0
276 3 9.0877713845532799e+00 2.7767702145634590e+00 7.2406164563478788e+00 0 0 0
277 1 8.2618823646153494e+00 4.3651290663684961e+00 5.6760676326133357e+00 0 0 0
278 2 1.1815292553140845e+01 4.1729357762263675e+00 4.0720995986144048e+00 0 0 0
279 3 1.1843716015919847e+01 4.2159693027748197e+00 7.1894706173407696e+00 0 0 0
280 1 1.1021972353079367e+01 5.8020451230815819e+00 5.6219133933236893e+00 0 0 0
281 2 1.4589403576811641e+01 5.5941668609010611e+00 4.0246244681107468e+00 0 0 0
282 3 1.4607166948709974e+01 5.6359427307419310e+00 7.1414389181773616e+00 0 0 0
283 1 1.3791578630133767e+01 7.2231120800819371e+00 5.5717298863828351e+00 0 0 0
284 2 1.7379487086186710e+01 7.0084616632691992e+00 3.9949906825231940e+00 0 0 0
285 3 1.7377195965298458e+01 7.0393893333967190e+00 7.1115554176588036e+00 0 0 0
286 1 1.6570348307855490e+01 8.6316719468225109e+00 5.5409535122539291e+00 0 0 0
287 2 2.0178477335486406e+01 8.4209207552619532e+00 3.9944206071155541e+00 0 0 0
288 3 2.0152268368929221e+01 8.4342872164401133e+00 7.1109873972755029e+00 0 0 0
289 1 1.9354985850001942e+01 1.0034465773282264e+01 5.5409542704559591e+00 0 0 0
290 2 2.2976015190045377e+01 9.8376703488375625e+00 4.0246263874488157e+00 0 0 0
291 3 2.2930953915954202e+01 9.8321657435871881e+00 7.1414408539973770e+00 0 0 0
292 1 2.2140287146931300e+01 1.1440372524669577e+01 5.5733887210323090e+00 0 0 0
293 2 2.5762626341584593e+01 1.1265285847435093e+01 4.0760341343199569e+00 0 0 0
294 3 2.5711310685237329e+01 1.1245558479760367e+01 7.1934603446427738e+00 0 0 0
295 1 2.4920560330488570e+01 1.2858746362672514e+01 5.6284641973350569e+00 0 0 0
296 2 2.8533846560573483e+01 1.2708687825899498e+01 4.1322319063302926e+00 0 0 0
297 3 2.8490460313308184e+01 1.2682976362679058e+01 7.2504628804678601e+00 0 0 0
298 1 2.7691605690808920e+01 1.4296084588809249e+01 5.6891490687164357e+00 0 0 0
299 2 3.1291579333343716e+01 1.4168032789275259e+01 4.1779203334033355e+00 0 0 0
300 3 3.1265965019630269e+01 1.4144027501618297e+01 7.2967302994604157e+00 0 0 0
301 1 3.0452611661384637e+01 1.5752283046456240e+01 5.7393050205065208e+00 0 0 0
302 2 3.4041959615462815e+01 1.5637517856584003e+01 4.2043485743762865e+00 0 0 0
303 3 3.4037627891094814e+01 1.5619477180195016e+01 7.3233940007723080e+00 0 0 0
304 1 3.3206581795403920e+01 1.7220121887546846e+01 5.7696920345552254e+00 0 0 0
305 2 3.6792244560830767e+01 1.7107456178511118e+01 4.2098172644068974e+00 0 0 0
306 3 3.6807488147072164e+01 1.7095714506477314e+01 7.3288838193015637e+00 0 0 0
307 1 3.5958861229871516e+01 1.8688616943706236e+01 5.7785305972590999e+00 0 0 0
308 2 3.9548812565217645e+01 1.8568508479496632e+01 4.1981601912634012e+00 0 0 0
309 3 3.9577813049065192e+01 1.8560116826798328e+01 7.3171361744218899e+00 0 0 0
310 1 3.8714848319319486e+01 2.0147644250485182e+01 5.7696912543084311e+00 0 0 0
311 2 4.2315536453562110e+01 2.0015247619436924e+01 4.1779190433188154e+00 0 0 0
312 3 4.2349133084637849e+01 2.0005067204401872e+01 7.2967289976431902e+00 0 0 0
313 1 4.1477976797974620e+01 2.1591428050287089e+01 5.7516326884356523e+00 0 0 0
314 1 4.4248518505770157e+01 2.3020306593782873e+01 5.7356218126590566e+00 0 0 0
315 1 1.3624648249290459e+01 4.1005111173195967e+00 5.6128693740314883e+00 0 0 0
316 2 1.7209952145776946e+01 3.8848709474602812e+00 4.0404003432935847e+00 0 0 0
317 3 1.7204768283716163e+01 3.9374572527052831e+00 7.1573397977357223e+00 0 0 0
318 1 1.6395248347184872e+01 5.5165770094171300e+00 5.5733869668766189e+00 0 0 0
319 2 2.0002311176216296e+01 5.3001067947431082e+00 4.0248543575795264e+00 0 0 0
320 3 1.9977674647908579e+01 5.3404279321788799e+00 7.1416241390449855e+00 0 0 0
321 1 1.9176684532309466e+01 6.9245958702715855e+00 5.5572880001666860e+00 0 0 0
322 2 2.2800451847547460e+01 6.7182917420899058e+00 4.0365779755952875e+00 0 0 0
323 3 2.2757611301130257e+01 6.7400139681701932e+00 7.1534863208073149e+00 0 0 0
324 1 2.1964219485527767e+01 8.3322609253975486e+00 5.5717315016603717e+00 0 0 0
325 2 2.5593892792037472e+01 8.1458359134079412e+00 4.0721017598228491e+00 0 0 0
326 3 2.5542412876451685e+01 8.1489343120178646e+00 7.1894728046324730e+00 0 0 0
327 1 2.4751936370512720e+01 9.7489959757460589e+00 5.6128716036696558e+00 0 0 0
328 2 2.8375477933169144e+01 9.5883305730733888e+00 4.1185756156266828e+00 0 0 0
329 3 2.8329287193077256e+01 9.5782187065199089e+00 7.2366350333140472e+00 0 0 0
330 1 2.7534552357425063e+01 1.1182891703881328e+01 5.6670040144963769e+00 0 0 0
331 2 3.1143964402081853e+01 1.1047609543978021e+01 4.1605550080817180e+00 0 0 0
332 3 3.1114925901787792e+01 1.1031617293311930e+01 7.2792005346349828e+00 0 0 0
333 1 3.0308961640069207e+01 1.2636580232776101e+01 5.7173559273514787e+00 0 0 0
334 2 3.3903046734759954e+01 1.2519682655472481e+01 4.1869045504798343e+00 0 0 0
335 3 3.3897166780210540e+01 1.2503386298224799e+01 7.3058170640368418e+00 0 0 0
336 1 3.3075371661196428e+01 1.4105290501338891e+01 5.7516336774935439e+00 0 0 0
337 2 3.6658629705447787e+01 1.3995522376841647e+01 4.1932353151426023e+00 0 0 0
338 3 3.6676085132085220e+01 1.3981024467764019e+01 7.3121619402949660e+00 0 0 0
339 1 3.5836931093090577e+01 1.5578660158195280e+01 5.7649618031287897e+00 0 0 0
340 2 3.9416878487197494e+01 1.5464652667633430e+01 4.1810674480294283e+00 0 0 0
341 3 3.9453042701197539e+01 1.5450704694138187e+01 7.2998350935719856e+00 0 0 0
342 1 3.8598175975365514e+01 1.7045217461533561e+01 5.7587154762032773e+00 0 0 0
343 1 4.1363019261591596e+01 1.8496555153042024e+01 5.7393036116881300e+00 0 0 0
344 1 1.9006359383426478e+01 3.8155996931601006e+00 5.6021624307624860e+00 0 0 0
345 2 2.2631135244943632e+01 3.6087712009989503e+00 4.0725693082315928e+00 0 0 0
346 3 2.2594877454948922e+01 3.6494573516653346e+00 7.1898601763597938e+00 0 0 0
347 1 2.1790395722980293e+01 5.2275005701343664e+00 5.5991768865428657e+00 0 0 0
348 2 2.5425240838294229e+01 5.0351264465754673e+00 4.0904213318224185e+00 0 0 0
349 3 2.5378747063192328e+01 5.0581838108891590e+00 7.2079710516322280e+00 0 0 0
350 1 2.4579702912876382e+01 6.6442455354757968e+00 5.6219153647148392e+00 0 0 0
351 2 2.8211811889738701e+01 6.4742163014417420e+00 4.1225823393145182e+00 0 0 0
352 3 2.8166768498289844e+01 6.4818164111688974e+00 7.2406183515211424e+00 0 0 0
353 1 2.7368180232986333e+01 8.0749923249085604e+00 5.6619650482033936e+00 0 0 0
354 2 3.0986753331029263e+01 7.9295631142868430e+00 4.1553985552923232e+00 0 0 0
355 3 3.0955711858174933e+01 7.9275153629715653e+00 7.2739257096459840e+00 0 0 0
356 1 3.0151381693564996e+01 9.5247667645025231e+00 5.7044211097580577e+00 0 0 0
357 2 3.3751540545199816e+01 9.3994121883331712e+00 4.1765723485365038e+00 0 0 0
358 3 3.3742856060878445e+01 9.3932878246448279e+00 7.2953606157522550e+00 0 0 0
359 1 3.2927546459034815e+01 1.0991491645251308e+01 5.7356226015340939e+00 0 0 0
360 2 3.6510853893985491e+01 1.0876321663868167e+01 4.1795014969866653e+00 0 0 0
361 3 3.6527099099808225e+01 1.0868912116988175e+01 7.2982882254388679e+00 0 0 0
362 1 3.5697771232206918e+01 1.2466388108216437e+01 5.7480769224673036e+00 0 0 0
363 1 3.8465138073698981e+01 1.3937679393340733e+01 5.7407184376512603e+00 0 0 0
364 1 2.4415454208088047e+01 3.5446549628571034e+00 5.6522738589931869e+00 0 0 0
365 2 2.8054242779472954e+01 3.3710225930879107e+00 4.1408910877792220e+00 0 0 0
366 3 2.8015581464003937e+01 3.3893637348037844e+00 7.2590892558800677e+00 0 0 0