LAMMPS data file via write_data, version 30 Mar 2018, timestep = 1834

364 atoms
2 atom types

0.0000000000000000e+00 2.3466903608500001e+01 xlo xhi
0.0000000000000000e+00 2.0322934358300000e+01 ylo yhi
0.0000000000000000e+00 1.0000000000000000e+02 zlo zhi
1.1733452349500000e+01 0.0000000000000000e+00 0.0000000000000000e+00 xy xz yz

Masses

1 12.011
2 12.011

Atoms # atomic

1 1 2.2048747220353999e+01 7.6810435851744630e-02 9.9857266567575721e+01 -1 1 -1
2 1 7.7559860544247927e-01 1.1897539465449023e+00 9.9857267179544365e+01 0 1 -1
3 1 3.1456309429050389e+01 1.6829341585718076e+01 9.9888815516976777e+01 -1 0 -1
4 1 3.3649269324540889e+01 1.7943324675068375e+01 9.9865673768115414e+01 -1 0 -1
5 1 3.3006679667402921e+01 1.9209928037706273e+01 9.9862922176808539e+01 -1 0 -1
6 1 1.2376010780263051e+01 1.9056369034046789e+01 9.9857266805182789e+01 0 0 -1
7 1 1.1733452561050582e+01 2.0322934057784497e+01 9.9854391437107253e+01 0 0 -1
8 1 1.4569798153094165e+01 2.0169458226878849e+01 9.9865674945536881e+01 0 0 -1
9 1 2.1937394624681796e+00 1.1130830185579548e+00 9.9862895147832148e+01 0 1 -1
10 1 5.0297370193786568e+00 9.6064431766435321e-01 9.9888970251121762e+01 0 1 -1
11 1 7.2224228968960098e+00 2.0768764996715401e+00 9.9920355463397129e+01 0 1 -1
12 1 2.9136067626925424e+01 1.3254924914448406e+01 9.9940003024082131e+01 -1 0 -1
13 1 3.1325780283161265e+01 1.4371904260428026e+01 9.9914450957795566e+01 -1 0 -1
14 1 3.0682623090339472e+01 1.5638557299293112e+01 9.9907019929409842e+01 -1 0 -1
15 1 1.0050526585698307e+01 1.5486732017053138e+01 9.9888968389522148e+01 0 0 -1
16 1 3.2874438051406948e+01 1.6753206440351040e+01 9.9878972707466289e+01 -1 0 -1
17 1 1.2243521987988556e+01 1.6600244480300116e+01 9.9873810535760128e+01 0 0 -1
18 1 1.1600541292386730e+01 1.7866558545350042e+01 9.9862894190318372e+01 0 0 -1
19 1 1.4437217855783068e+01 1.7713438654937431e+01 9.9873715190585415e+01 0 0 -1
20 1 1.3794182269404656e+01 1.8979657574616880e+01 9.9862923008454459e+01 0 0 -1
21 1 1.6631015738710822e+01 1.8827290932704045e+01 9.9888817260716735e+01 0 0 -1
22 1 1.5987886406959323e+01 2.0093493922056453e+01 9.9878974355061587e+01 0 0 -1
23 1 1.8824483479108572e+01 1.9942968270006091e+01 9.9914452939282171e+01 0 0 -1
24 1 6.4477264347968273e+00 8.8621978969204440e-01 9.9906576987543914e+01 0 1 -1
25 1 9.2840921627027893e+00 7.3864653160682325e-01 9.9940065717853670e+01 0 1 -1
26 1 8.6404179160418142e+00 2.0046643819167032e+00 9.9935549271049311e+01 0 1 -1
27 1 1.1476909626859859e+01 1.8596337976378103e+00 9.9953351482413069e+01 0 1 -1
28 1 2.6822423057142029e+01 9.6771417371417030e+00 9.9947161193815973e+01 -1 0 -1
29 1 2.9010001567763815e+01 1.0795314755585515e+01 9.9950917002657533e+01 -1 0 -1
30 1 2.8365968966207298e+01 1.2061965181251070e+01 9.9950759465847057e+01 -1 0 -1
31 1 7.7310928880463443e+00 1.1913351532078549e+01 9.9940064323985141e+01 0 0 -1
32 1 3.0554222443782756e+01 1.3179970024088508e+01 9.9931978334703743e+01 -1 0 -1
33 1 9.9208688749661800e+00 1.3029694375223393e+01 9.9920353522669643e+01 0 0 -1
34 1 9.2770781659887156e+00 1.4295929532355812e+01 9.9906574977939826e+01 0 0 -1
35 1 1.2112652956345874e+01 1.4144226413482109e+01 9.9902905627321587e+01 0 0 -1
36 1 1.1468791771391716e+01 1.5410086340351985e+01 9.9886363373918954e+01 0 0 -1
37 1 1.4305772074538361e+01 1.5257937354465453e+01 9.9895948035224123e+01 0 0 -1
38 1 1.3661795414066884e+01 1.6523547491049197e+01 9.9878952604043931e+01 0 0 -1
39 1 1.6499508247135726e+01 1.6371818321413851e+01 9.9902358081568053e+01 0 0 -1
40 1 1.5855421890593103e+01 1.7637338057869457e+01 9.9886615847097858e+01 0 0 -1
41 1 1.8693261823437997e+01 1.7487090241719628e+01 9.9919838225106844e+01 0 0 -1
42 1 1.8049108350832206e+01 1.8752651260352934e+01 9.9907021872547048e+01 0 0 -1
43 1 2.0886672285364675e+01 1.8605111396123441e+01 9.9940004381175925e+01 0 0 -1
44 1 2.0242507727835982e+01 1.9870746942818283e+01 9.9931980012383207e+01 0 0 -1
45 1 2.3079790212345575e+01 1.9725740242898286e+01 9.9950917231997238e+01 0 0 -1
46 1 1.0702146902947536e+01 6.6845548341670091e-01 9.9949070725789156e+01 0 1 -1
47 1 1.3539442011797027e+01 5.2417795204781470e-01 9.9945041874025875e+01 0 1 -1
48 1 1.2895087240528071e+01 1.7897257758148548e+00 9.9949776654167749e+01 0 1 -1
49 1 1.5732761619339325e+01 1.6440148643240979e+00 9.9925295932387442e+01 0 1 -1
50 1 2.6696086371134435e+01 7.2182054754931757e+00 9.9924541452090963e+01 -1 0 -1
51 1 2.6052009253049437e+01 8.4845140577242510e+00 9.9936466390548802e+01 -1 0 -1
52 1 5.4176825760541272e+00 8.3353448536454469e+00 9.9945042932986794e+01 0 0 -1
53 1 2.8240640334559949e+01 9.6020307758337111e+00 9.9949484193043133e+01 -1 0 -1
54 1 7.6054875017304404e+00 9.4538223847600324e+00 9.9953351301401767e+01 0 0 -1
55 1 6.9612781517604381e+00 1.0720375717410315e+01 9.9949070090636852e+01 0 0 -1
56 1 9.7941655419618154e+00 1.0571846942723260e+01 9.9947467647180417e+01 0 0 -1
57 1 9.1493336449317848e+00 1.1837780843259575e+01 9.9935547691763787e+01 0 0 -1
58 1 1.1984595304008653e+01 1.1688135360016293e+01 9.9934921628383321e+01 0 0 -1
59 1 1.1339229548993874e+01 1.2953367850874450e+01 9.9918039303166822e+01 0 0 -1
60 1 1.4176764647069700e+01 1.2802963038057648e+01 9.9925296331995014e+01 0 0 -1
61 1 1.3531098536403228e+01 1.4067674088407902e+01 9.9906618605459585e+01 0 0 -1
62 1 1.6370010675598106e+01 1.3917277188460536e+01 9.9924540557613085e+01 0 0 -1
63 1 1.5724203610242466e+01 1.5181755426126303e+01 9.9906822081430974e+01 0 0 -1
64 1 1.8563587976002680e+01 1.5032282905770902e+01 9.9933430192244046e+01 0 0 -1
65 1 1.7917857037839319e+01 1.6296861268136176e+01 9.9918894607584420e+01 0 0 -1
66 1 2.0756895848914290e+01 1.6149494842193374e+01 9.9946638019048933e+01 0 0 -1
67 1 2.0111531359703818e+01 1.7414420008466703e+01 9.9937173691361522e+01 0 0 -1
68 1 2.2949583436881262e+01 1.7269284131806561e+01 9.9954234602111526e+01 0 0 -1
69 1 2.2304855052696851e+01 1.8534666427981929e+01 9.9950760119744714e+01 0 0 -1
70 1 2.5141945629984200e+01 1.8390328202212345e+01 9.9947160219777999e+01 0 0 -1
71 1 2.4497885065167445e+01 1.9656095909005568e+01 9.9949483544807507e+01 0 0 -1
72 1 2.7334615277606815e+01 1.9510385462422217e+01 9.9924539584055069e+01 0 0 -1
73 1 1.4957506785445045e+01 4.5342385845634070e-01 9.9931792691694582e+01 0 1 -1
74 1 1.7794328102307780e+01 3.0480399191125751e-01 9.9895947290603644e+01 0 1 -1
75 1 1.7150866591390489e+01 1.5708225464619248e+00 9.9906618183647495e+01 0 1 -1
76 1 1.9987925305152093e+01 1.4196113315697942e+00 9.9873810441890058e+01 0 1 -1
77 1 2.4374910549919843e+01 3.6462768550566862e+00 9.9873715663183532e+01 -1 0 -1
78 1 3.1002563059228310e+00 4.7601922447458964e+00 9.9895949241304166e+01 0 0 -1
79 1 2.5923919685127707e+01 6.0266809858084134e+00 9.9906822961452463e+01 -1 0 -1
80 1 5.2908301038917296e+00 5.8759558783774626e+00 9.9925297753455339e+01 0 0 -1
81 1 4.6473754055047571e+00 7.1426417475881356e+00 9.9931794373431870e+01 0 0 -1
82 1 7.4798982305954373e+00 6.9940794619770843e+00 9.9949604997995280e+01 0 0 -1
83 1 6.8358565397626059e+00 8.2605985825386341e+00 9.9949777304137726e+01 0 0 -1
84 1 9.6689210152862461e+00 8.1132763790821603e+00 9.9959611863991270e+01 0 0 -1
85 1 9.0237507519929316e+00 9.3790937930773790e+00 9.9953377508814143e+01 0 0 -1
86 1 1.1859036574805504e+01 9.2315276763042267e+00 9.9956915087718528e+01 0 0 -1
87 1 1.1212581812837517e+01 1.0496372077464644e+01 9.9945783462249011e+01 0 0 -1
88 1 1.4050553860705559e+01 1.0348112746121020e+01 9.9949604030726974e+01 0 0 -1
89 1 1.3403188946229520e+01 1.1612086388463394e+01 9.9936019989131950e+01 0 0 -1
90 1 1.6243231694107049e+01 1.1463411115055246e+01 9.9945042211939892e+01 0 0 -1
91 1 1.5595474132626229e+01 1.2726868255533672e+01 9.9931793358548475e+01 0 0 -1
92 1 1.8436343530157917e+01 1.2578398341517786e+01 9.9947160898768232e+01 0 0 -1
93 1 1.7788704629262384e+01 1.3841910140154528e+01 9.9936465886247092e+01 0 0 -1
94 1 2.0629141653387350e+01 1.3694695355713579e+01 9.9954228378912219e+01 0 0 -1
95 1 1.9982192398054437e+01 1.4958762488154289e+01 9.9947484058146046e+01 0 0 -1
96 1 2.2821147538446333e+01 1.4813095834732939e+01 9.9959428788088758e+01 0 0 -1
97 1 2.2175364787373884e+01 1.6077997049663036e+01 9.9956927737889274e+01 0 0 -1
98 1 2.5012287973062939e+01 1.5933160878199452e+01 9.9954227688743529e+01 0 0 -1
99 1 2.4367839469545039e+01 1.7198879735394421e+01 9.9955027605466441e+01 0 0 -1
100 1 2.7203449774701568e+01 1.7053189034882365e+01 9.9933428869392216e+01 0 0 -1
101 1 2.6559998394281031e+01 1.8319444067899944e+01 9.9936464772330368e+01 0 0 -1
102 1 2.9395561500084391e+01 1.8170966710176753e+01 9.9902356627902876e+01 0 0 -1
103 1 2.8752589097623297e+01 1.9437431637068769e+01 9.9906820929721192e+01 0 0 -1
104 1 3.1588584108589060e+01 1.9286152332264400e+01 9.9873714189294745e+01 0 0 -1
105 1 1.9212366973007498e+01 2.2969905654860617e-01 9.9878951954160669e+01 0 1 -1
106 1 2.1406075816786807e+01 1.3432919308973514e+00 9.9862894322418740e+01 0 1 -1
107 1 2.3599850592829597e+01 2.4562822334037464e+00 9.9862923141593669e+01 -1 0 -1
108 1 2.9689092649842355e+00 2.3030776704064193e+00 9.9873811797337268e+01 0 0 -1
109 1 2.3261941316491086e+00 3.5696870090265818e+00 9.9878953602254668e+01 0 0 -1
110 1 5.1613178052696966e+00 3.4177509755962947e+00 9.9902907413378443e+01 0 0 -1
111 1 4.5183913022500679e+00 4.6844370579494123e+00 9.9906620107629166e+01 0 0 -1
112 1 7.3523838650342865e+00 4.5348955528482309e+00 9.9934923230821198e+01 0 0 -1
113 1 6.7089473874149146e+00 5.8014581578863105e+00 9.9936021333913843e+01 0 0 -1
114 1 9.5426479594113260e+00 5.6544625081373034e+00 9.9956915876836675e+01 0 0 -1
115 1 8.8981236304884739e+00 6.9204581997632246e+00 9.9954970841303989e+01 0 0 -1
116 1 1.1733452089003091e+01 6.7743113521602973e+00 9.9963435037491251e+01 0 0 -1
117 1 1.1087347513500987e+01 8.0393234968604315e+00 9.9959331802428395e+01 0 0 -1
118 1 1.3925295415891879e+01 7.8927650722685021e+00 9.9959611581595269e+01 0 0 -1
119 1 1.3277683180239732e+01 9.1567042202398277e+00 9.9954970187181019e+01 0 0 -1
120 1 1.6117959136560316e+01 9.0094778046567647e+00 9.9953351136563299e+01 0 0 -1
121 1 1.5469412451949378e+01 1.0272609633675390e+01 9.9949776727199563e+01 0 0 -1
122 1 1.8310920432336921e+01 1.0124813317688776e+01 9.9950917183186760e+01 0 0 -1
123 1 1.7662186810222732e+01 1.1387741673158242e+01 9.9949483966586484e+01 0 0 -1
124 1 2.0503377181896891e+01 1.1240279108506876e+01 9.9954234800324031e+01 0 0 -1
125 1 1.9855221247891194e+01 1.2503727120176212e+01 9.9955028208261666e+01 0 0 -1
126 1 2.2694716522284843e+01 1.2357144639569773e+01 9.9959428922334041e+01 0 0 -1
127 1 2.2047835818282309e+01 1.3621553257087976e+01 9.9961645738270008e+01 0 0 -1
128 1 2.4884848086781659e+01 1.3475627888017852e+01 9.9959428578726943e+01 0 0 -1
129 1 2.4239597866813376e+01 1.4741106795168470e+01 9.9961645360293986e+01 0 0 -1
130 1 2.7074329549183183e+01 1.4595122833743478e+01 9.9946636909272797e+01 0 0 -1
131 1 2.6430476844581428e+01 1.5861401879476638e+01 9.9947482912764769e+01 0 0 -1
132 1 2.9264538354327158e+01 1.5713484538446554e+01 9.9919836450749628e+01 0 0 -1
133 1 2.8621472228204496e+01 1.6980119250854639e+01 9.9918892963383854e+01 0 0 -1
134 1 3.0813576926334207e+01 1.8096001980447358e+01 9.9886614373217526e+01 0 0 -1
135 1 4.3869815525804965e+00 2.2272208394529320e+00 9.9886365049373495e+01 0 0 -1
136 1 6.5793432723596776e+00 3.3433761346781328e+00 9.9918041134099013e+01 0 0 -1
137 1 9.4143329129340838e+00 3.1960721504592633e+00 9.9947468847523567e+01 0 0 -1
138 1 8.7704879020794095e+00 4.4621940781300644e+00 9.9945784682069288e+01 0 0 -1
139 1 1.1606139829673934e+01 4.3168925856755589e+00 9.9959611955875346e+01 0 0 -1
140 1 1.0960971612278774e+01 5.5822623616751041e+00 9.9959332090641368e+01 0 0 -1
141 1 1.3798671740463909e+01 5.4369438280607199e+00 9.9956915153652730e+01 0 0 -1
142 1 1.3152037051159432e+01 6.7013481796090435e+00 9.9959331742491230e+01 0 0 -1
143 1 1.5991857841493257e+01 6.5550148529674317e+00 9.9947467854728927e+01 0 0 -1
144 1 1.5344110605796978e+01 7.8185901367798483e+00 9.9953377482635943e+01 0 0 -1
145 1 1.8185171262168829e+01 7.6709358125461389e+00 9.9940064953945679e+01 0 0 -1
146 1 1.7536931185844047e+01 8.9341027896923855e+00 9.9949070398339018e+01 0 0 -1
147 1 2.0377972341833580e+01 8.7858319235391864e+00 9.9940004070377171e+01 0 0 -1
148 1 1.9729888188552430e+01 1.0049236775138272e+01 9.9950760124225440e+01 0 0 -1
149 1 2.2569486812151759e+01 9.9012506078465226e+00 9.9946638047317890e+01 0 0 -1
150 1 2.1922171370513645e+01 1.1165429723023735e+01 9.9956927884485026e+01 0 0 -1
151 1 2.4759282545215253e+01 1.1018012097953038e+01 9.9954228401492145e+01 0 0 -1
152 1 2.4113278512844467e+01 1.2283208417331625e+01 9.9961645667936523e+01 0 0 -1
153 1 2.6947751554526263e+01 1.2136305099110814e+01 9.9954234362178951e+01 0 0 -1
154 1 2.6303176043334439e+01 1.3402441666211654e+01 9.9956927173005752e+01 0 0 -1
155 1 2.8492469120448504e+01 1.4521562332308848e+01 9.9937172160218907e+01 0 0 -1
156 1 1.0832494846330095e+01 3.1252500792055655e+00 9.9953378015439370e+01 0 0 -1
157 1 1.3669904191634849e+01 2.9807417596448769e+00 9.9949604024633871e+01 0 0 -1
158 1 1.3024549383306203e+01 4.2457716018744192e+00 9.9954970295945159e+01 0 0 -1
159 1 1.5863377172836003e+01 4.0999029339600055e+00 9.9934921711689753e+01 0 0 -1
160 1 1.5217286525921086e+01 5.3643677979365103e+00 9.9945783592642826e+01 0 0 -1
161 1 1.8057064631716187e+01 5.2163628542342213e+00 9.9920354101747066e+01 0 0 -1
162 1 1.7410604734538268e+01 6.4804886560001069e+00 9.9935548236747834e+01 0 0 -1
163 1 2.0250448614471182e+01 6.3309955209802578e+00 9.9914452162288754e+01 0 0 -1
164 1 1.9603982099906297e+01 7.5951512705320123e+00 9.9931979418999589e+01 0 0 -1
165 1 2.2442912168571844e+01 7.4452933068566898e+00 9.9919838107633709e+01 0 0 -1
166 1 2.1796711785542733e+01 8.7098859473434693e+00 9.9937173577630460e+01 0 0 -1
167 1 2.4633674529212495e+01 8.5603962376779492e+00 9.9933430516823563e+01 0 0 -1
168 1 2.3988042992225083e+01 9.8257039948528639e+00 9.9947484188330350e+01 0 0 -1
169 1 2.6177651484675906e+01 1.0943261569077526e+01 9.9955028132396663e+01 0 0 -1
170 1 1.5088219959097785e+01 2.9093893402130635e+00 9.9936019834817898e+01 0 0 -1
171 1 1.7926385704071148e+01 2.7609562374618704e+00 9.9902905651950718e+01 0 0 -1
172 1 1.7281783553387452e+01 4.0261897731821126e+00 9.9918039543541951e+01 0 0 -1
173 1 2.0120092906694236e+01 3.8755572132158056e+00 9.9888969125260459e+01 0 0 -1
174 1 1.9475551822931600e+01 5.1407843799345345e+00 9.9906575889738491e+01 0 0 -1
175 1 2.2313387300642596e+01 4.9892353876749445e+00 9.9888816971552842e+01 0 0 -1
176 1 2.1668980942429592e+01 6.2546595071647495e+00 9.9907021484305631e+01 0 0 -1
177 1 2.4505642673305925e+01 6.1030829453595841e+00 9.9902358562324579e+01 0 0 -1
178 1 2.3861383078684231e+01 7.3688876215419743e+00 9.9918894849931775e+01 0 0 -1
179 1 1.9344583175024326e+01 2.6856264030061205e+00 9.9886363603324639e+01 0 0 -1
180 1 2.2181645060293540e+01 2.5330849084979081e+00 9.9865674485902801e+01 0 0 -1
181 1 2.1538388017553352e+01 3.7991675554350044e+00 9.9878973725769740e+01 0 0 -1
182 1 2.3731713646066954e+01 4.9125279133684199e+00 9.9886616078266286e+01 0 0 -1
183 2 3.3782193762448998e+01 2.0246130959445708e+01 3.4427334457651284e+00 -1 0 0
184 2 2.4109456298920591e+01 1.2665723656654173e+00 3.4427328277573408e+00 -1 1 0
185 2 2.9790511045084621e+01 1.5106578478231224e+01 3.3796468000337629e+00 -1 0 0
186 2 3.1853539313366717e+01 1.6447384157514371e+01 3.4110318305845877e+00 -1 0 0
187 2 1.0448187876184576e+01 1.7789856488840975e+01 3.4343262454182408e+00 0 0 0
188 2 3.3139522296679282e+01 1.8979649479885918e+01 3.4371060556302813e+00 -1 0 0
189 2 1.2509045084076309e+01 1.9133187448014851e+01 3.4427332015348409e+00 0 0 0
190 2 2.3466897992161879e+01 7.3671833065669562e-06 3.4456085725038053e+00 -1 1 0
191 2 2.8363400252009190e+00 1.5348316669761358e-01 3.4343250568629879e+00 0 1 0
192 2 2.0607241881960601e+00 1.3432838573781203e+00 3.4370766290370383e+00 0 1 0
193 2 4.8975577006936311e+00 1.4956504535629462e+00 3.4111824241682216e+00 0 1 0
194 2 2.7851405536819168e+01 1.1313463491641597e+01 3.3466488398518437e+00 -1 0 0
195 2 2.9918617669745863e+01 1.2652005494089524e+01 3.3599357948469319e+00 -1 0 0
196 2 2.9144051170046026e+01 1.3842452663564753e+01 3.3644525315603397e+00 -1 0 0
197 2 8.5169913753862367e+00 1.3991945825432188e+01 3.3855490538715762e+00 0 0 0
198 2 3.1208998220494699e+01 1.5182156974163226e+01 3.3934251962046953e+00 -1 0 0
199 2 1.0579930059591998e+01 1.5333705995708277e+01 3.4111842923625431e+00 0 0 0
200 2 9.8049307928763891e+00 1.6523773845217566e+01 3.4210272992390536e+00 0 0 0
201 2 1.2641453349028851e+01 1.6676664555456572e+01 3.4262853749630944e+00 0 0 0
202 2 1.1866393412475510e+01 1.7866659197551403e+01 3.4370775989420785e+00 0 0 0
203 2 1.4702355716956779e+01 1.8019863753212789e+01 3.4261888942550827e+00 0 0 0
204 2 1.3927185948799918e+01 1.9209858410452917e+01 3.4371052179310460e+00 0 0 0
205 2 1.6763183548405536e+01 1.9362297089082357e+01 3.4110300643560554e+00 0 0 0
206 2 4.2544282637199018e+00 2.2944750875750763e-01 3.4210256331039774e+00 0 1 0
207 2 7.0910254130582269e+00 3.7997312970758951e-01 3.3855470573094690e+00 0 1 0
208 2 6.3156503282182133e+00 1.5702901687689492e+00 3.3929778273922331e+00 0 1 0
209 2 9.1532143219887967e+00 1.7178299959485437e+00 3.3599954377278718e+00 0 1 0
210 2 2.5910210754380998e+01 7.5199782851894250e+00 3.3747024014740084e+00 -1 0 0
211 2 2.7976677942182754e+01 8.8595301766030392e+00 3.3549571022779436e+00 -1 0 0
212 2 2.7202858785879322e+01 1.0050331690039265e+01 3.3502227853337474e+00 -1 0 0
213 2 6.5774631586629004e+00 1.0198127958471870e+01 3.3490829760868022e+00 0 0 0
214 2 2.9270377570012567e+01 1.1388838510906025e+01 3.3509299519753508e+00 -1 0 0
215 2 8.6445151068934027e+00 1.1537109395236508e+01 3.3599968661558797e+00 0 0 0
216 2 7.8705248796986620e+00 1.2727790063912950e+01 3.3680216403201673e+00 0 0 0
217 2 1.0709454920558709e+01 1.2877648080950111e+01 3.3801632581290986e+00 0 0 0
218 2 9.9355237010982549e+00 1.4068281879183914e+01 3.3929798893182248e+00 0 0 0
219 2 1.2772185426926413e+01 1.4219858485936214e+01 3.3976428371298115e+00 0 0 0
220 2 1.1998256398574956e+01 1.5410413508908819e+01 3.4133852203959987e+00 0 0 0
221 2 1.4833702710874960e+01 1.5562749200283713e+01 3.4040519406181224e+00 0 0 0
222 2 1.4059640523123841e+01 1.6753254436837736e+01 3.4210474069984760e+00 0 0 0
223 2 1.6894764266088675e+01 1.6905190476890031e+01 3.3970934313318839e+00 0 0 0
224 2 1.6120428010322669e+01 1.8095720618527693e+01 3.4136355813757202e+00 0 0 0
225 2 1.8955869415410866e+01 1.8246064947080971e+01 3.3796450109016050e+00 0 0 0
226 2 1.8181172969314595e+01 1.9436721655218260e+01 3.3934232568197706e+00 0 0 0
227 2 2.1017538759987268e+01 1.9584294887168767e+01 3.3599344501422710e+00 0 0 0
228 2 8.5090496554443416e+00 4.5219449881202517e-01 3.3680199318319484e+00 0 1 0
229 2 1.1346332188841366e+01 5.9720116980060156e-01 3.3490827307436883e+00 0 1 0
230 2 1.0571397110103057e+01 1.7882750213820133e+00 3.3492396669803006e+00 0 1 0
231 2 1.3408487674512575e+01 1.9326132225367432e+00 3.3528395393440205e+00 0 1 0
232 2 2.3976967700851731e+01 3.7226968997414205e+00 3.4261884278386288e+00 -1 0 0
233 2 2.6039217909122666e+01 5.0650040022426666e+00 3.4040507656635812e+00 -1 0 0
234 2 2.5264544484662842e+01 6.2552673054043568e+00 3.3933800575983977e+00 -1 0 0
235 2 4.6365530705386568e+00 6.4056641031601966e+00 3.3754584197901401e+00 0 0 0
236 2 2.7328920231417612e+01 7.5960730883307193e+00 3.3682056172381145e+00 -1 0 0
237 2 6.7028860996485840e+00 7.7445429350461374e+00 3.3528386499911274e+00 0 0 0
238 2 5.9287294552170060e+00 8.9351996533242204e+00 3.3505157179186611e+00 0 0 0
239 2 8.7699198534699523e+00 9.0826622111376327e+00 3.3457654857217571e+00 0 0 0
240 2 7.9964309246709391e+00 1.0273704559732987e+01 3.3492404007877696e+00 0 0 0
241 2 1.0836029541593472e+01 1.0421690771652797e+01 3.3533628520385279e+00 0 0 0
242 2 1.0063254535779809e+01 1.1613055434482533e+01 3.3628275931358393e+00 0 0 0
243 2 1.2900217286932561e+01 1.1762545214025774e+01 3.3665706969366291e+00 0 0 0
244 2 1.2127925819655992e+01 1.2954053817874533e+01 3.3811065848600741e+00 0 0 0
245 2 1.4962629157191554e+01 1.3104736020872688e+01 3.3754597580504684e+00 0 0 0
246 2 1.4190462440931469e+01 1.4296260488523339e+01 3.3931783878713317e+00 0 0 0
247 2 1.7024276542768384e+01 1.4446985628913644e+01 3.3747032509482509e+00 0 0 0
248 2 1.6251837703643794e+01 1.5638504423915570e+01 3.3933809569286009e+00 0 0 0
249 2 1.9085830349915980e+01 1.5788045943086345e+01 3.3650774730006661e+00 0 0 0
250 2 1.8312789722300618e+01 1.6979565346024991e+01 3.3819595576543966e+00 0 0 0
251 2 2.1147779443085057e+01 1.7126869316310064e+01 3.3525315624162104e+00 0 0 0
252 2 2.0373864438754147e+01 1.8318277082106491e+01 3.3644510542616510e+00 0 0 0
253 2 2.3210356192574473e+01 1.8463307629944250e+01 3.3466487335940571e+00 0 0 0
254 2 2.2435593498113796e+01 1.9654485956821116e+01 3.3509293321255305e+00 0 0 0
255 2 2.5272888617359968e+01 1.9798763455717278e+01 3.3549581881749932e+00 0 0 0
256 2 1.2764427038901673e+01 6.6684554527061513e-01 3.3505163184208833e+00 0 1 0
257 2 1.5601157220430245e+01 8.1255596145715503e-01 3.3754602259202264e+00 0 1 0
258 2 1.4826540455594564e+01 2.0034974065141600e+00 3.3635348427169629e+00 0 1 0
259 2 2.3333986901803581e+01 2.4563828785808153e+00 3.4371050904043736e+00 -1 0 0
260 2 2.7037598680227557e+00 2.6095027082325566e+00 3.4262841201277414e+00 0 0 0
261 2 2.5395241111150568e+01 3.7993939173317215e+00 3.4210463950901944e+00 -1 0 0
262 2 4.7660504119490250e+00 3.9511230155331480e+00 3.3976410779222213e+00 0 0 0
263 2 3.9907458515507788e+00 5.1411859633439825e+00 3.3931768524929953e+00 0 0 0
264 2 6.8301302957525056e+00 5.2906584096855180e+00 3.3665691317241029e+00 0 0 0
265 2 6.0552470517103529e+00 6.4810312045591880e+00 3.3635333592073198e+00 0 0 0
266 2 8.8956841260847757e+00 6.6282459589336913e+00 3.3457713833189908e+00 0 0 0
267 2 8.1217638099834470e+00 7.8192142407199317e+00 3.3449716608081532e+00 0 0 0
268 2 1.0961259124074640e+01 7.9657967425024809e+00 3.3405713055637207e+00 0 0 0
269 2 1.0188714044221985e+01 9.1575116919147277e+00 3.3430726355247615e+00 0 0 0
270 2 1.3025825228333993e+01 9.3049293625601024e+00 3.3457721561036666e+00 0 0 0
271 2 1.2254585724653786e+01 1.0497237470078471e+01 3.3525167878813344e+00 0 0 0
272 2 1.5088965801418734e+01 1.0645799784688895e+01 3.3528394868383660e+00 0 0 0
273 2 1.4318552001974265e+01 1.1838427459747807e+01 3.3635347419633130e+00 0 0 0
274 2 1.7151128987155523e+01 1.1987596698273068e+01 3.3549576804287891e+00 0 0 0
275 2 1.6380821797359715e+01 1.3180299789269400e+01 3.3682066477874884e+00 0 0 0
276 2 1.9213344686830496e+01 1.3328862074315106e+01 3.3503954676474006e+00 0 0 0
277 2 1.8442393824920053e+01 1.4521483368208161e+01 3.3639794350976646e+00 0 0 0
278 2 2.1276094450603324e+01 1.4668478988203063e+01 3.3430844450900756e+00 0 0 0
279 2 2.0503934378871016e+01 1.5860747416274801e+01 3.3542157980951641e+00 0 0 0
280 2 2.3339586349799003e+01 1.6006048853810150e+01 3.3403883104391650e+00 0 0 0
281 2 2.2565941368584909e+01 1.7197691371598278e+01 3.3466222464649040e+00 0 0 0
282 2 2.5403350713639874e+01 1.7342199639409731e+01 3.3503962783479975e+00 0 0 0
283 2 2.4628533804357019e+01 1.8533215645412714e+01 3.3502234909971071e+00 0 0 0
284 2 2.7466208142152531e+01 1.8678926523468753e+01 3.3747043270123731e+00 0 0 0
285 2 2.6690953375142250e+01 1.9869517567803424e+01 3.3682073060283759e+00 0 0 0
286 2 2.9527774664073963e+01 2.0018137407496454e+01 3.4040527357449704e+00 0 0 0
287 2 1.7019131039360278e+01 8.8550981557589448e-01 3.3931787915567808e+00 0 1 0
288 2 1.9855126015735664e+01 1.0367890835606497e+00 3.4262854811318801e+00 0 1 0
289 2 4.1219639222297255e+00 2.6856033438580953e+00 3.4133835070381298e+00 0 0 0
290 2 6.9598039184130815e+00 2.8358511080135460e+00 3.3801613109827309e+00 0 0 0
291 2 6.1843991966043399e+00 4.0260801181818904e+00 3.3811046824409203e+00 0 0 0
292 2 9.0234381040563250e+00 4.1734465076415477e+00 3.3533616069782930e+00 0 0 0
293 2 8.2487347374110929e+00 5.3641789045799504e+00 3.3525154760941400e+00 0 0 0
294 2 1.1087689915311273e+01 5.5098455579453285e+00 3.3405710334742009e+00 0 0 0
295 2 1.0314378304176909e+01 6.7013881696092898e+00 3.3383541948809192e+00 0 0 0
296 2 1.3151390588922705e+01 6.8473135640035432e+00 3.3405713548938025e+00 0 0 0
297 2 1.2379821104959099e+01 8.0397330801726685e+00 3.3383545942906925e+00 0 0 0
298 2 1.5214294163175328e+01 8.1866364240142371e+00 3.3457655763749696e+00 0 0 0
299 2 1.4444194172197282e+01 9.3796799814051948e+00 3.3449723066584900e+00 0 0 0
300 2 1.7276544249963546e+01 9.5276267994505108e+00 3.3490828630208740e+00 0 0 0
301 2 1.6507183076201951e+01 1.0720910801055627e+01 3.3505162474903760e+00 0 0 0
302 2 1.9338933881891677e+01 1.0869119157658357e+01 3.3466484930265925e+00 0 0 0
303 2 1.8569302944023462e+01 1.2062342986716461e+01 3.3502230259846897e+00 0 0 0
304 2 2.1402367454868191e+01 1.2209665124798477e+01 3.3403879643727374e+00 0 0 0
305 2 2.0631570087325986e+01 1.3402483317639122e+01 3.3450293800463466e+00 0 0 0
306 2 2.3466898554547054e+01 1.3548630084511213e+01 3.3365649565969075e+00 0 0 0
307 2 2.2694418096390926e+01 1.4740679091332941e+01 3.3406680908432254e+00 0 0 0
308 2 2.5532118223443668e+01 1.4885997546503324e+01 3.3430851274759728e+00 0 0 0
309 2 2.4757995886793932e+01 1.6077169798675950e+01 3.3450299622187250e+00 0 0 0
310 2 2.7596823643818855e+01 1.6223038424075362e+01 3.3650788406455199e+00 0 0 0
311 2 2.6821666471262070e+01 1.7413552050886505e+01 3.3639805189813012e+00 0 0 0
312 2 2.9659832154968818e+01 1.7561985138858503e+01 3.3970949337330905e+00 0 0 0
313 2 2.8884313111613505e+01 1.8752118854965378e+01 3.3933820933887229e+00 0 0 0
314 2 3.1721371780636805e+01 1.8903330051937587e+01 3.4261899221822310e+00 0 0 0
315 2 3.0945813514318885e+01 2.0093242365345031e+01 3.4210480542735260e+00 0 0 0
316 2 2.1273221577783012e+01 1.1130134069394610e+00 3.4370774696650654e+00 0 1 0
317 2 8.3780734747243919e+00 2.9085214024281685e+00 3.3628259167838523e+00 0 0 0
318 2 1.1216125599590159e+01 3.0536572624626364e+00 3.3457651590994764e+00 0 0 0
319 2 1.0441907040516320e+01 4.2449443940226717e+00 3.3430719631538417e+00 0 0 0
320 2 1.3278830246768774e+01 4.3897805725653880e+00 3.3457719768154490e+00 0 0 0
321 2 1.2506140260154355e+01 5.5818347079339254e+00 3.3383544274322219e+00 0 0 0
322 2 1.5340871920230599e+01 5.7278186607561503e+00 3.3533625536746161e+00 0 0 0
323 2 1.4569718547279606e+01 6.9204998845810577e+00 3.3430725911616603e+00 0 0 0
324 2 1.7402610114399678e+01 7.0680166023978490e+00 3.3599962121480651e+00 0 0 0
325 2 1.6632511568342242e+01 8.2609764083795589e+00 3.3492402102234164e+00 0 0 0
326 2 1.9464539081147521e+01 8.4095899933893854e+00 3.3599347510008331e+00 0 0 0
327 2 1.8694724452956493e+01 9.6025658594382310e+00 3.3509294894290824e+00 0 0 0
328 2 2.1527611838115590e+01 9.7510945322154630e+00 3.3525314489017051e+00 0 0 0
329 2 2.0757197124381122e+01 1.0943847730908493e+01 3.3466220680713201e+00 0 0 0
330 2 2.3592482972483072e+01 1.1091413739900192e+01 3.3430842941817072e+00 0 0 0
331 2 2.2820793945502132e+01 1.2283617961453421e+01 3.3406679400977080e+00 0 0 0
332 2 2.5658741858276780e+01 1.2430176294664349e+01 3.3403883077175922e+00 0 0 0
333 2 2.4885483519830082e+01 1.3621593203521524e+01 3.3406683165290518e+00 0 0 0
334 2 2.7725304280381444e+01 1.3767926472216557e+01 3.3525326280058159e+00 0 0 0
335 2 2.6950732995373194e+01 1.4958573543307597e+01 3.3542168591381629e+00 0 0 0
336 2 2.9015229997224523e+01 1.6296751588044184e+01 3.3819611597336872e+00 0 0 0
337 2 3.1078029622428581e+01 1.7637314996752956e+01 3.4136370485098597e+00 0 0 0
338 2 1.2634381639465543e+01 3.1240617424743582e+00 3.3449720724549423e+00 0 0 0
339 2 1.5469991911899514e+01 3.2697524137194200e+00 3.3665705865070921e+00 0 0 0
340 2 1.4697019117551232e+01 4.4615396547105028e+00 3.3525165653502174e+00 0 0 0
341 2 1.7531080580338998e+01 4.6094569373244161e+00 3.3801626466569532e+00 0 0 0
342 2 1.6759011510281674e+01 5.8013792179110810e+00 3.3628270537167175e+00 0 0 0
343 2 1.9592322602458644e+01 5.9510372014908066e+00 3.3855478309856442e+00 0 0 0
344 2 1.8820764921593121e+01 7.1429715219057952e+00 3.3680206567262760e+00 0 0 0
345 2 2.1654314939658448e+01 7.2932470622294003e+00 3.3796451005951371e+00 0 0 0
346 2 2.0882779834358388e+01 8.4851606853347175e+00 3.3644512075880382e+00 0 0 0
347 2 2.3718041505189685e+01 8.6348060396585335e+00 3.3650771088741900e+00 0 0 0
348 2 2.2946028124186945e+01 9.8265693740366427e+00 3.3542155944382328e+00 0 0 0
349 2 2.5784000178430382e+01 9.9748285868784574e+00 3.3503951887404280e+00 0 0 0
350 2 2.5011129566637756e+01 1.1166237155894297e+01 3.3450293183435420e+00 0 0 0
351 2 2.7077557035755191e+01 1.2504351193272583e+01 3.3466226645616595e+00 0 0 0
352 2 1.7662103498277308e+01 2.1519747143420744e+00 3.3976428193434494e+00 0 0 0
353 2 1.6888014358628229e+01 3.3428222404068939e+00 3.3811063116929865e+00 0 0 0
354 2 1.9722851528855063e+01 3.4935998371714474e+00 3.4111835466521438e+00 0 0 0
355 2 1.8949165317413129e+01 4.6843842079385380e+00 3.3929790016280097e+00 0 0 0
356 2 2.1783972385801594e+01 4.8362094058075913e+00 3.4110303514571867e+00 0 0 0
357 2 2.1010524112740583e+01 6.0270119480764874e+00 3.3934236964885964e+00 0 0 0
358 2 2.3846098880454875e+01 6.1787149599744255e+00 3.3970929486293491e+00 0 0 0
359 2 2.3072675599010189e+01 7.3695735932225253e+00 3.3819593015942497e+00 0 0 0
360 2 2.5136635149128679e+01 8.7108550063292718e+00 3.3639788807248281e+00 0 0 0
361 2 1.9080118940867635e+01 2.2269394701635350e+00 3.4133849873890241e+00 0 0 0
362 2 2.1915811307921494e+01 2.3796167209314270e+00 3.4343255213057762e+00 0 0 0
363 2 2.1140980135255543e+01 3.5697350081802783e+00 3.4210262962648645e+00 0 0 0
364 2 2.3202237576982672e+01 4.9128551059620058e+00 3.4136353568104685e+00 0 0 0

Velocities
