LAMMPS data file via write_data, version 30 Mar 2018, timestep = 915

366 atoms
6 atom types

0.0000000000000000e+00 2.4336738377000000e+01 xlo xhi
0.0000000000000000e+00 2.1076233353799999e+01 ylo yhi
0.0000000000000000e+00 1.0000000000000000e+02 zlo zhi
1.2168369753100000e+01 0.0000000000000000e+00 0.0000000000000000e+00 xy xz yz

Masses

1 95.94
2 32.066
3 32.066
4 95.94
5 32.066
6 32.066

Atoms # atomic

1 2 2.2528978296570308e+01 1.3468113551306823e-01 4.0182178924030918e+00 -1 1 0
2 3 2.2554394442945750e+01 1.3660949883441345e-01 7.1333547580230947e+00 -1 1 0
3 2 1.0205139619010759e+00 1.4982248136030387e+00 4.0182166347850439e+00 0 1 0
4 3 1.0094763638605440e+00 1.4752514856434633e+00 7.1333534828764584e+00 0 1 0
5 2 3.1663918914699600e+01 1.6713523097409517e+01 4.0962038866865083e+00 -1 0 0
6 3 3.1702006509405194e+01 1.6754915297571984e+01 7.2130681226546702e+00 -1 0 0
7 2 3.4468093335842653e+01 1.8081345532471744e+01 4.0408555611198000e+00 -1 0 0
8 3 3.4487857752407699e+01 1.8120763685313570e+01 7.1564130334309421e+00 -1 0 0
9 1 3.3697476526192503e+01 1.9722385746094830e+01 5.5901757207849263e+00 -1 0 0
10 2 1.2955610029426085e+01 1.9443329351979934e+01 4.0182174657977656e+00 0 0 0
11 3 1.2941233873782261e+01 1.9464376710412370e+01 7.1333543267903785e+00 0 0 0
12 1 2.4336736807998257e+01 1.0795243742013259e-06 5.5659936046136345e+00 -1 1 0
13 2 1.5780524124155548e+01 2.0809573024348030e+01 4.0408533197298997e+00 0 0 0
14 3 1.5736505922841278e+01 2.0806980859965261e+01 7.1564107435638000e+00 0 0 0
15 1 2.8091044449348312e+00 1.3543043432165027e+00 5.5897442905527193e+00 0 1 0
16 2 6.4190627065871677e+00 1.1131572612544522e+00 4.0934786975191626e+00 0 1 0
17 3 6.3690066189524037e+00 1.0951479894631633e+00 7.2105890004549522e+00 0 1 0
18 2 9.2036486852221149e+00 2.5102490652780345e+00 4.1444411562344277e+00 0 1 0
19 3 9.1740432550021822e+00 2.4914358561638026e+00 7.2635440892569028e+00 0 1 0
20 2 2.8714279050020153e+01 1.2221109160965884e+01 4.1695876266841969e+00 -1 0 0
21 3 2.8727885500405783e+01 1.2219861810197207e+01 7.2888477799411140e+00 -1 0 0
22 2 3.1476853134476027e+01 1.3594531436711907e+01 4.1391197058614839e+00 -1 0 0
23 3 3.1495788852746728e+01 1.3626715414842508e+01 7.2576464405166945e+00 -1 0 0
24 1 3.0694482048059051e+01 1.5229316044509826e+01 5.6888904877343602e+00 -1 0 0
25 2 9.9228591122823069e+00 1.4960583305309413e+01 4.0934814917547255e+00 0 0 0
26 3 9.9322905925458080e+00 1.5012937507508163e+01 7.2105918891477216e+00 0 0 0
27 1 3.3476378845488711e+01 1.6606084432675281e+01 5.6305991825232775e+00 -1 0 0
28 2 1.2731226872528794e+01 1.6321809204265580e+01 4.0602759572288543e+00 0 0 0
29 3 1.2715254865307410e+01 1.6372842758487227e+01 7.1763130334170606e+00 0 0 0
30 1 1.1936676596024732e+01 1.7966325584361172e+01 5.5897462585703384e+00 0 0 0
31 2 1.5552837492254760e+01 1.7686726251493688e+01 4.0616384623906638e+00 0 0 0
32 3 1.5508660288553532e+01 1.7719884746418984e+01 7.1775354164757195e+00 0 0 0
33 1 1.4744650435169458e+01 1.9321679495873440e+01 5.5901741071363755e+00 0 0 0
34 2 1.8367180794846131e+01 1.9064996984894972e+01 4.0962012576377811e+00 0 0 0
35 3 1.8312290130455303e+01 1.9077286172206733e+01 7.2130654133304706e+00 0 0 0
36 1 1.7553995533246393e+01 2.0688353074734167e+01 5.6305963577843654e+00 0 0 0
37 2 2.1161840678071886e+01 2.0462488211342091e+01 4.1391176832055443e+00 0 0 0
38 3 2.1124499175971625e+01 2.0462794988229135e+01 7.2576443425764570e+00 0 0 0
39 1 8.1884432042294044e+00 1.0013257538106892e+00 5.6847880921724192e+00 0 1 0
40 2 1.1772887940385209e+01 7.9944354310386678e-01 4.1612589213895896e+00 0 1 0
41 3 1.1772980626906589e+01 7.9776251286510746e-01 7.2807889897786042e+00 0 1 0
42 1 1.0983233170636899e+01 2.4099325568341077e+00 5.7207707706654753e+00 0 1 0
43 2 1.4553375874857966e+01 2.2147998638076229e+00 4.1502916047542220e+00 0 1 0
44 3 1.4589536176631418e+01 2.2117140910343545e+00 7.2694288828675191e+00 0 1 0
45 2 2.5777802856984863e+01 7.7409143422455085e+00 4.1237324346236495e+00 -1 0 0
46 3 2.5776384830914509e+01 7.6843257586525731e+00 7.2412479524182878e+00 -1 0 0
47 2 2.8551472285592375e+01 9.1097271189982845e+00 4.1529022970051663e+00 -1 0 0
48 3 2.8545979524386251e+01 9.0739425655524446e+00 7.2716747711201792e+00 -1 0 0
49 1 2.7746655636493259e+01 1.0708774686272802e+01 5.7277885646993107e+00 -1 0 0
50 2 6.9742641480633694e+00 1.0480891471463760e+01 4.1612592185883948e+00 0 0 0
51 3 6.9727612152454368e+00 1.0481649798849769e+01 7.2807892925617317e+00 0 0 0
52 1 3.0511285130228973e+01 1.2099254901925180e+01 5.7189938506704747e+00 -1 0 0
53 2 9.7404842334232988e+00 1.1850515471189961e+01 4.1444430177464957e+00 0 0 0
54 3 9.7389939634472125e+00 1.1885559652376733e+01 7.2635460254100694e+00 0 0 0
55 1 8.9413205986353468e+00 1.3484170040390477e+01 5.6847905610317850e+00 0 0 0
56 2 1.2528874966079481e+01 1.3216460599544309e+01 4.1185336660465728e+00 0 0 0
57 3 1.2515213808206626e+01 1.3267813188997305e+01 7.2365340614713975e+00 0 0 0
58 1 1.1722558901118687e+01 1.4855392539567402e+01 5.6461686933659410e+00 0 0 0
59 2 1.5338276961534104e+01 1.4582757320578068e+01 4.1077483802316994e+00 0 0 0
60 3 1.5303653338021464e+01 1.4628919960797063e+01 7.2250462502242945e+00 0 0 0
61 1 1.4520955446209602e+01 1.6216989125340209e+01 5.6302690008357219e+00 0 0 0
62 2 1.8151663719542839e+01 1.5957778086803298e+01 4.1237331235017702e+00 0 0 0
63 3 1.8103366121026944e+01 1.5987300915965241e+01 7.2412486687200506e+00 0 0 0
64 1 1.7329174164507698e+01 1.7582939745493078e+01 5.6492526941943080e+00 0 0 0
65 2 2.0951026028282413e+01 1.7348926447527656e+01 4.1534801391143725e+00 0 0 0
66 3 2.0912290756784159e+01 1.7364950698895839e+01 7.2719674257791134e+00 0 0 0
67 1 2.0137260170870121e+01 1.8967542985819534e+01 5.6888881003624583e+00 0 0 0
68 2 2.3732546593950204e+01 1.8756739611701835e+01 4.1695872901547304e+00 0 0 0
69 3 2.3726821596442093e+01 1.8769146651744133e+01 7.2888474333793836e+00 0 0 0
70 1 2.2939571406066328e+01 2.0373919603358562e+01 5.7189928685014637e+00 0 0 0
71 2 2.6508485818409831e+01 2.0171436067722766e+01 4.1529038507597908e+00 0 0 0
72 3 2.6542220816650413e+01 2.0184571263992165e+01 7.2716763877368003e+00 0 0 0
73 1 1.3568926467141594e+01 7.1283512922889092e-01 5.7170048373349838e+00 0 1 0
74 2 1.7128266804026531e+01 5.0151669763193929e-01 4.1077493669621488e+00 0 1 0
75 3 1.7185556410187576e+01 5.0842139286320454e-01 7.2250472550811269e+00 0 1 0
76 1 1.6367806821580256e+01 2.1163156768362348e+00 5.6846243489305568e+00 0 1 0
77 2 1.9937854387003469e+01 1.8897627394724701e+00 4.0602759754637194e+00 0 1 0
78 3 1.9990037254322907e+01 1.8780796512276463e+00 7.1763130444632202e+00 0 1 0
79 2 2.5579902121598575e+01 4.6257911406367009e+00 4.0616374896024228e+00 -1 0 0
80 3 2.5573276052616173e+01 4.5709534984798514e+00 7.1775344200009918e+00 -1 0 0
81 2 4.0385610096135265e+00 5.9919605260902706e+00 4.1077466915746008e+00 0 0 0
82 3 4.0158954083949157e+00 5.9388935999941106e+00 7.2250444921518637e+00 0 0 0
83 1 2.7568133406323458e+01 7.5848709714519096e+00 5.6872540668329812e+00 -1 0 0
84 2 6.8097542342262170e+00 7.3652399030496420e+00 4.1502901575488513e+00 0 0 0
85 3 6.7890009426805218e+00 7.3354657421451357e+00 7.2694273731812382e+00 0 0 0
86 1 6.0012391568640675e+00 8.9687798683234092e+00 5.7170038357261914e+00 0 0 0
87 2 9.5723566130061606e+00 8.7438424886338648e+00 4.1683856767246548e+00 0 0 0
88 3 9.5613091855446228e+00 8.7467836940824757e+00 7.2885137927235002e+00 0 0 0
89 1 8.7638154846366003e+00 1.0359507379760952e+01 5.7207716378201168e+00 0 0 0
90 2 1.2346536409991238e+01 1.0121732994600983e+01 4.1621711161413772e+00 0 0 0
91 3 1.2339414086916801e+01 1.0149168139130088e+01 7.2820461402926240e+00 0 0 0
92 1 1.1533618977057753e+01 1.1743985721681751e+01 5.7027749183953560e+00 0 0 0
93 2 1.5141975864907764e+01 1.1496194324877163e+01 4.1502914218190945e+00 0 0 0
94 3 1.5126568355132211e+01 1.1529053565419506e+01 7.2694287052157609e+00 0 0 0
95 1 1.4320050737078709e+01 1.3116780282606980e+01 5.6846240025604660e+00 0 0 0
96 2 1.7950256094514739e+01 1.2871304283652261e+01 4.1529028369682353e+00 0 0 0
97 3 1.7922013228632007e+01 1.2893953066802551e+01 7.2716753552136639e+00 0 0 0
98 1 1.7121361347116540e+01 1.4485328357337085e+01 5.6872551513354308e+00 0 0 0
99 2 2.0752026278575450e+01 1.4254414612732051e+01 4.1713949355581237e+00 0 0 0
100 3 2.0722989804339520e+01 1.4265641251574241e+01 7.2903819239125953e+00 0 0 0
101 1 1.9927654540879015e+01 1.5864278827716257e+01 5.7109793004255165e+00 0 0 0
102 2 2.3535207537578351e+01 1.5649799181113957e+01 4.1854067413133125e+00 0 0 0
103 3 2.3526535133894555e+01 1.5660227374837582e+01 7.3047655076851115e+00 0 0 0
104 1 2.2729953553100380e+01 1.7262786679605203e+01 5.7332151460313838e+00 0 0 0
105 2 2.6305410142354454e+01 1.7053477233933268e+01 4.1713962156574080e+00 0 0 0
106 3 2.6329649971264502e+01 1.7073009892378227e+01 7.2903832356156535e+00 0 0 0
107 1 2.5526077449996965e+01 1.8674920528019261e+01 5.7277895065075866e+00 0 0 0
108 2 2.9080746806926680e+01 1.8453775360127835e+01 4.1237351066970716e+00 0 0 0
109 3 2.9130462398800042e+01 1.8480841273424012e+01 7.2412507067776968e+00 0 0 0
110 1 2.8320718607132122e+01 2.0082268432326959e+01 5.6872566178359749e+00 0 0 0
111 2 3.1877472002398150e+01 1.9839950933944561e+01 4.0616401987166340e+00 0 0 0
112 3 3.1928276662838091e+01 1.9861631574903960e+01 7.1775371886052444e+00 0 0 0
113 1 1.8952213672742069e+01 3.9222290607256738e-01 5.6302700012330975e+00 0 1 0
114 1 2.1759322739148402e+01 1.7556062749968391e+00 5.5897458573455658e+00 0 1 0
115 1 2.4568084933174191e+01 3.1084043108701840e+00 5.5901737050997093e+00 -1 0 0
116 2 3.8360221825373619e+00 2.8646630334762748e+00 4.0602736787798728e+00 0 0 0
117 3 3.7998127601597798e+00 2.8253140235258365e+00 7.1763106905344003e+00 0 0 0
118 1 3.0319352753966462e+00 4.4670234630045105e+00 5.6302671739085906e+00 0 0 0
119 2 6.6265099392652882e+00 4.2420947591921649e+00 4.1185313276709294e+00 0 0 0
120 3 6.5888676037506482e+00 4.2045868393578747e+00 7.2365316284436307e+00 0 0 0
121 1 5.8172478192625761e+00 5.8431384670683961e+00 5.6846220364761537e+00 0 0 0
122 2 9.3977923393368386e+00 5.6315481433547978e+00 4.1621698492291115e+00 0 0 0
123 3 9.3775929790833779e+00 5.6116615331196646e+00 7.2820448144069836e+00 0 0 0
124 1 8.5894943332126630e+00 7.2360348218692474e+00 5.7233442943080330e+00 0 0 0
125 2 1.2168368907266949e+01 7.0254112632251049e+00 4.1760688735914950e+00 0 0 0
126 3 1.2168368566782043e+01 7.0254107636716183e+00 7.2965995795309819e+00 0 0 0
127 1 1.1359793855936584e+01 8.6326586836541512e+00 5.7329760397991789e+00 0 0 0
128 2 1.4954579681261883e+01 8.4144089591787878e+00 4.1683860205742143e+00 0 0 0
129 3 1.4962651356064598e+01 8.4225048853447397e+00 7.2885141594818457e+00 0 0 0
130 1 1.4140211697129264e+01 1.0019496118150622e+01 5.7233453672802801e+00 0 0 0
131 2 1.7757954197310660e+01 9.7958989845030260e+00 4.1612590406348016e+00 0 0 0
132 3 1.7759363689726971e+01 9.7968208104198933e+00 7.2807891302304419e+00 0 0 0
133 1 1.6934940219970191e+01 1.1394618772699586e+01 5.7170044483435056e+00 0 0 0
134 2 2.0563389052649779e+01 1.1174618571880274e+01 4.1695867847362136e+00 0 0 0
135 3 2.0555506563800076e+01 1.1163457979331396e+01 7.2888469336837343e+00 0 0 0
136 1 1.9737480821028612e+01 1.2768771724277485e+01 5.7277884675264623e+00 0 0 0
137 2 2.3352748911162482e+01 1.2557188103646089e+01 4.1854063768757435e+00 0 0 0
138 3 2.3348053287807055e+01 1.2544463643289102e+01 7.3047651390361459e+00 0 0 0
139 1 2.2536844128089690e+01 1.4155405070721478e+01 5.7457834149020242e+00 0 0 0
140 2 2.6122258752963194e+01 1.3945479962333605e+01 4.1854071067536438e+00 0 0 0
141 3 2.6135625296300063e+01 1.3947775025874455e+01 7.3047658841672876e+00 0 0 0
142 1 2.5327256224853286e+01 1.5557284244874662e+01 5.7457841654237303e+00 0 0 0
143 2 2.8885836598550640e+01 1.5333882794800818e+01 4.1534819406822514e+00 0 0 0
144 3 2.8919080714511530e+01 1.5359415473615329e+01 7.2719692889527394e+00 0 0 0
145 1 2.8111778833382498e+01 1.6962471745421986e+01 5.7109811789537446e+00 0 0 0
146 1 3.0899422457521357e+01 1.8353491800789364e+01 5.6492550325154758e+00 0 0 0
147 1 5.6103107493615667e+00 2.7243385431180394e+00 5.6461659534143385e+00 0 0 0
148 1 8.3993384000214188e+00 4.1164142258018890e+00 5.7027728929436314e+00 0 0 0
149 2 1.1978170200781090e+01 3.9179824339460350e+00 4.1683854864013936e+00 0 0 0
150 3 1.1981145088778909e+01 3.9069440628907239e+00 7.2885135978754612e+00 0 0 0
151 1 1.1180739161894772e+01 5.5215405078207942e+00 5.7329755000034810e+00 0 0 0
152 2 1.4760777572398203e+01 5.3229528132627433e+00 4.1621709373015419e+00 0 0 0
153 3 1.4788098519357636e+01 5.3154031731095177e+00 7.2820459500426828e+00 0 0 0
154 1 1.3964573416941111e+01 6.9220341911537275e+00 5.7329761032947948e+00 0 0 0
155 2 1.7560972890140143e+01 6.7154696313286912e+00 4.1444423867941378e+00 0 0 0
156 3 1.7592068209981530e+01 6.6992380831993126e+00 7.2635453753137753e+00 0 0 0
157 1 1.6758057401442016e+01 8.3067937233428406e+00 5.7207714783551209e+00 0 0 0
158 2 2.0371519982059304e+01 8.0954479811779851e+00 4.1391181413796554e+00 0 0 0
159 3 2.0389925443424882e+01 8.0629569560380236e+00 7.2576448397752156e+00 0 0 0
160 1 1.9559357357606537e+01 9.6792925911899257e+00 5.7189929021408545e+00 0 0 0
161 2 2.3173351620087480e+01 9.4696582898448032e+00 4.1534799156293563e+00 0 0 0
162 3 2.3178842058548604e+01 9.4281008695286204e+00 7.2719672104882660e+00 0 0 0
163 1 2.2358486844357916e+01 1.1053324490250198e+01 5.7332147391467618e+00 0 0 0
164 2 2.5952778357256122e+01 1.0844575511522434e+01 4.1713948983938680e+00 0 0 0
165 3 2.5957573868350529e+01 1.0813815314379132e+01 7.2903818733356012e+00 0 0 0
166 1 2.5146113707882378e+01 1.2439777268288301e+01 5.7457835378299054e+00 0 0 0
167 1 2.7921773527074315e+01 1.3836355666658527e+01 5.7332160764580200e+00 0 0 0
168 1 1.3775400156116238e+01 3.8207026575756924e+00 5.7233451623072229e+00 0 0 0
169 2 1.7349720171186956e+01 3.6176790711072315e+00 4.1185334657161601e+00 0 0 0
170 3 1.7401023839127838e+01 3.6038344412008629e+00 7.2365338444840317e+00 0 0 0
171 1 1.6572148418502746e+01 5.2158340829894989e+00 5.7027745457615939e+00 0 0 0
172 2 2.0163182547976128e+01 5.0024941347047562e+00 4.0934801616059806e+00 0 0 0
173 3 2.0203807850852680e+01 4.9681499079969873e+00 7.2105905206580196e+00 0 0 0
174 1 1.9375341524931901e+01 6.5907386273344413e+00 5.6847892699544911e+00 0 0 0
175 2 2.2979112877423717e+01 6.3739479694101382e+00 4.0962014049819055e+00 0 0 0
176 3 2.2995916543353019e+01 6.3202673368102475e+00 7.2130655799665337e+00 0 0 0
177 1 2.2178471120192938e+01 7.9556086971072224e+00 5.6888882489344690e+00 0 0 0
178 1 2.4970780227611741e+01 9.3257167234867424e+00 5.7109789483356437e+00 0 0 0
179 1 1.9172235073260318e+01 3.4965040950012605e+00 5.6461681349913553e+00 0 0 0
180 2 2.2761593575675374e+01 3.2615499413627962e+00 4.0408540245308666e+00 0 0 0
181 3 2.2785849226225558e+01 3.2247258717101213e+00 7.1564114685982743e+00 0 0 0
182 1 2.1979838135102934e+01 4.8580313269574473e+00 5.6305972213755133e+00 0 0 0
183 1 2.4781616112572124e+01 6.2160369565807718e+00 5.6492521369362700e+00 0 0 0
184 5 3.4722772507071383e+01 2.0939617227075402e+01 1.0545693240962501e+01 -1 0 0
185 6 3.4697356277295860e+01 2.0941544094468608e+01 1.3660830107599105e+01 -1 0 0
186 5 2.5109610836221663e+01 1.6118500398093745e+00 1.0545694514460969e+01 -1 1 0
187 6 2.5123986892763376e+01 1.6328959520396555e+00 1.3660831363040662e+01 -1 1 0
188 5 2.9760443833322455e+01 1.4376988332355166e+01 1.0415501703100668e+01 -1 0 0
189 6 2.9729349434092342e+01 1.4360757103945192e+01 1.3534604725074873e+01 -1 0 0
190 5 3.2372184381887408e+01 1.6108076681897451e+01 1.0468455870107062e+01 -1 0 0
191 6 3.2331559699962085e+01 1.6073732072987614e+01 1.3585566279148972e+01 -1 0 0
192 5 1.0617488271963227e+01 1.7851500769622920e+01 1.0522634974579184e+01 0 0 0
193 6 1.0593232781816514e+01 1.7814675627723496e+01 1.3638192449238225e+01 0 0 0
194 4 3.3927700417423907e+01 1.9320619850008192e+01 1.2089301345465364e+01 -1 0 0
195 5 1.3177854302382569e+01 1.9600975194745686e+01 1.0545693654447302e+01 0 0 0
196 6 1.3188891763754850e+01 1.9578000381969993e+01 1.3660830513936304e+01 0 0 0
197 4 1.2168376431743749e+01 2.1076224926537616e+01 1.2113054387794673e+01 0 0 0
198 5 3.5681443923611491e+00 2.6924584470492002e-01 1.0522637281995499e+01 0 1 0
199 6 3.6121624422170342e+00 2.6665224117863967e-01 1.3638194709111287e+01 0 1 0
200 4 2.5762889049760078e+00 1.7545465894823260e+00 1.2088874694636234e+01 0 1 0
201 5 6.1439282297882176e+00 1.9989404774283615e+00 1.0465983217043597e+01 0 1 0
202 6 6.1988189051611444e+00 2.0112286972731130e+00 1.3582847365972459e+01 0 1 0
203 5 2.7294943350021136e+01 9.5471725911757037e+00 1.0409620490589434e+01 -1 0 0
204 6 2.7310351651785489e+01 9.5800326232110358e+00 1.3528757718570022e+01 -1 0 0
205 5 2.9927738565914176e+01 1.1279405561588730e+01 1.0398258695279447e+01 -1 0 0
206 6 2.9926330179862113e+01 1.1280328190790955e+01 1.3517788779133674e+01 -1 0 0
207 4 2.8926432978738628e+01 1.2769433017042843e+01 1.1958276187802907e+01 -1 0 0
208 5 8.2215624629240391e+00 1.3013269417409077e+01 1.0421401645444995e+01 0 0 0
209 6 8.2031579087081017e+00 1.2980778885844799e+01 1.3539928387709816e+01 0 0 0
210 4 3.1543717682589133e+01 1.4485488044698954e+01 1.1994257288802014e+01 -1 0 0
211 5 1.0827554461600172e+01 1.4755958910821457e+01 1.0465980183210515e+01 0 0 0
212 6 1.0810751152438648e+01 1.4702278219518369e+01 1.3582844417165758e+01 0 0 0
213 4 9.8114766436422407e+00 1.6218195029510007e+01 1.2048448845132571e+01 0 0 0
214 5 1.3404914789918154e+01 1.6505272673549545e+01 1.0501511475304820e+01 0 0 0
215 6 1.3411540691310874e+01 1.6450434390335172e+01 1.3617408450323728e+01 0 0 0
216 4 1.2399724039783784e+01 1.7967821750181351e+01 1.2088872670299530e+01 0 0 0
217 5 1.5968190324104176e+01 1.8250912189738813e+01 1.0502735945373987e+01 0 0 0
218 6 1.6004399361350035e+01 1.8211562178646624e+01 1.3618772987502403e+01 0 0 0
219 4 1.4977482238831644e+01 1.9721921610568369e+01 1.2089302917451517e+01 0 0 0
220 5 1.8537384259952297e+01 1.9981078316398630e+01 1.0468458512703011e+01 0 0 0
221 6 1.8587440024644501e+01 1.9963068019949116e+01 1.3585568835987457e+01 0 0 0
222 4 5.3856338172026046e+00 3.8787293883920765e-01 1.2048451703690464e+01 0 1 0
223 5 8.9561371492851833e+00 6.1343133060067867e-01 1.0421403828856343e+01 0 1 0
224 6 8.9934784611152327e+00 6.1373734826033499e-01 1.3539930499032959e+01 0 1 0
225 4 7.9688981694171055e+00 2.1086831004647371e+00 1.1990160454960776e+01 0 1 0
226 5 1.1558459354779735e+01 2.3070794551421310e+00 1.0390201094292308e+01 0 1 0
227 6 1.1564184169599846e+01 2.3194861821040327e+00 1.3509461238326608e+01 0 1 0
228 5 2.4883631286933024e+01 4.7033836330148562e+00 1.0502736975376360e+01 -1 0 0
229 6 2.4899603287012916e+01 4.7544166195256583e+00 1.3618773998528708e+01 -1 0 0
230 5 2.7472028995623116e+01 6.4473065094640898e+00 1.0454003547052661e+01 -1 0 0
231 6 2.7506653135668827e+01 6.4934691938857485e+00 1.3571301353144930e+01 -1 0 0
232 4 2.6488426407869234e+01 7.9594461037075028e+00 1.1994425783558050e+01 -1 0 0
233 5 5.7536498467328929e+00 8.1822733913813028e+00 1.0407373446247210e+01 0 0 0
234 6 5.7818936309628235e+00 8.2049227756195506e+00 1.3526145922548205e+01 0 0 0
235 4 2.9103315632602794e+01 9.6816079672156068e+00 1.1962044194348632e+01 -1 0 0
236 5 8.3871430397383850e+00 9.9127682481792778e+00 1.0390200485133935e+01 0 0 0
237 6 8.3950264212612957e+00 9.9016085500751014e+00 1.3509460640832302e+01 0 0 0
238 4 7.3909944615485772e+00 1.1396934167307274e+01 1.1960054279104947e+01 0 0 0
239 5 1.1010478982284347e+01 1.1648124967320783e+01 1.0407079060837816e+01 0 0 0
240 6 1.1004988963781937e+01 1.1606568385220838e+01 1.3525566405074818e+01 0 0 0
241 4 1.0010108647042934e+01 1.3120617752805545e+01 1.1990157784604841e+01 0 0 0
242 5 1.3608022472612307e+01 1.3391899749162313e+01 1.0437797872709865e+01 0 0 0
243 6 1.3609440308809351e+01 1.3335311667991977e+01 1.3555313453880025e+01 0 0 0
244 4 1.2613254216054084e+01 1.4860189092868641e+01 1.2029793525624997e+01 0 0 0
245 5 1.6184272024834247e+01 1.5137331824443100e+01 1.0454001619623178e+01 0 0 0
246 6 1.6206937076189210e+01 1.5084264979936924e+01 1.3571299475356097e+01 0 0 0
247 4 1.5200312247915148e+01 1.6609202342240547e+01 1.2048778906008433e+01 0 0 0
248 5 1.8757244552536612e+01 1.6871638758555005e+01 1.0442515149728104e+01 0 0 0
249 6 1.8794886358181778e+01 1.6834130587475364e+01 1.3560515489657140e+01 0 0 0
250 4 1.7778688019868472e+01 1.8351887244541714e+01 1.2032880944975595e+01 0 0 0
251 5 2.1342420371822453e+01 1.8584790035273748e+01 1.0415503353459830e+01 0 0 0
252 6 2.1372025481488361e+01 1.8565976370634242e+01 1.3534606311572986e+01 0 0 0
253 4 2.0356820575275201e+01 2.0074900127445261e+01 1.1994259597395937e+01 0 0 0
254 5 2.3941357892797249e+01 2.0278463592212880e+01 1.0398258975415020e+01 0 0 0
255 6 2.3941265024397460e+01 2.0276782014752250e+01 1.3517789058968754e+01 0 0 0
256 4 1.0771209210291810e+01 7.0230630044010045e-01 1.1960055382697595e+01 0 1 0
257 5 1.4373858763164181e+01 8.9165482886915193e-01 1.0407372035228848e+01 0 1 0
258 6 1.4340123523111410e+01 9.0478949833849387e-01 1.3526144572783133e+01 0 1 0
259 4 1.3357715107001891e+01 2.4013052247628663e+00 1.1951259113359898e+01 0 1 0
260 5 1.6962100523258314e+01 2.5953846234014768e+00 1.0437798248484430e+01 0 1 0
261 6 1.6912384474920877e+01 2.6224501232435253e+00 1.3555313823981900e+01 0 1 0
262 4 2.4105053304564318e+01 3.1099003735335424e+00 1.2089303308663235e+01 -1 0 0
263 5 3.3402984130751285e+00 3.3563419952454931e+00 1.0501513943815519e+01 0 0 0
264 6 3.3844757684278162e+00 3.3894995413020088e+00 1.3617410867572891e+01 0 0 0
265 4 2.6689331832672320e+01 4.8592371192154626e+00 1.2048780851736552e+01 -1 0 0
266 5 5.9350035122846139e+00 5.0889257060226427e+00 1.0437800531886991e+01 0 0 0
267 6 5.9833015818520554e+00 5.1184483436809121e+00 1.3555316038345874e+01 0 0 0
268 4 4.9529988449607263e+00 6.5908981932250539e+00 1.1991794203227863e+01 0 0 0
269 5 8.5546266103943296e+00 6.8105850150692939e+00 1.0388666497234297e+01 0 0 0
270 6 8.5836636504418884e+00 6.8218122052306693e+00 1.3507653465624731e+01 0 0 0
271 4 7.5691178893141569e+00 8.3074548938343433e+00 1.1951259751234529e+01 0 0 0
272 5 1.1179689968716822e+01 8.5317620452052214e+00 1.0374282322396596e+01 0 0 0
273 6 1.1184385870383956e+01 8.5190386280941954e+00 1.3493641097057091e+01 0 0 0
274 4 1.0190123799739773e+01 1.0022901864675609e+01 1.1945832227893094e+01 0 0 0
275 5 1.3789210834299180e+01 1.0262409792222295e+01 1.0388664957107753e+01 0 0 0
276 6 1.3784415078642013e+01 1.0231650777012824e+01 1.3507651967285298e+01 0 0 0
277 4 1.2802417395321358e+01 1.1750509199295335e+01 1.1968067225780398e+01 0 0 0
278 5 1.6377616890546442e+01 1.2002282220697378e+01 1.0407371986503763e+01 0 0 0
279 6 1.6383109009857208e+01 1.1966498709731818e+01 1.3526144501997026e+01 0 0 0
280 4 1.5399770943830031e+01 1.3491354624400413e+01 1.1991792033961760e+01 0 0 0
281 5 1.8957376971058938e+01 1.3740759129762850e+01 1.0409619691099117e+01 0 0 0
282 6 1.8978129617237890e+01 1.3710985730540678e+01 1.3528756940637917e+01 0 0 0
283 4 1.7985624102173521e+01 1.5233087078963409e+01 1.1994424521344872e+01 0 0 0
284 5 2.1545969210381330e+01 1.5464563755102864e+01 1.0397002577387662e+01 0 0 0
285 6 2.1566168238773706e+01 1.5444677558477279e+01 1.3516877565861641e+01 0 0 0
286 4 2.0567715003556614e+01 1.6959811490667253e+01 1.1976274255405064e+01 0 0 0
287 5 2.4149521616330269e+01 1.7169281753689905e+01 1.0390533972611790e+01 0 0 0
288 6 2.4146546724723255e+01 1.7158243375035859e+01 1.3510662105445695e+01 0 0 0
289 4 2.3151610062712038e+01 1.8666293348173987e+01 1.1958276866218117e+01 0 0 0
290 5 2.6757913187071427e+01 1.8864512123490368e+01 1.0409618839169738e+01 0 0 0
291 6 2.6721752985360993e+01 1.8861425885788016e+01 1.3528756138805154e+01 0 0 0
292 4 2.5737303625792222e+01 2.0363390802483746e+01 1.1962043209984582e+01 0 0 0
293 5 2.9353933975636643e+01 2.0567804981582132e+01 1.0454000816463848e+01 0 0 0
294 6 2.9296644322942715e+01 2.0574708820957259e+01 1.3571298713362529e+01 0 0 0
295 4 1.6152356466859718e+01 9.9395735507351790e-01 1.1991791908067105e+01 0 1 0
296 5 1.9759915119147418e+01 1.2145948027593865e+00 1.0501511534795746e+01 0 1 0
297 6 1.9709110187722306e+01 1.2362743759412962e+00 1.3617408510422807e+01 0 1 0
298 4 5.1608122736477871e+00 3.4932865274314682e+00 1.2029796453676646e+01 0 0 0
299 5 8.7439283157613907e+00 3.7112756937207223e+00 1.0407081293386076e+01 0 0 0
300 6 8.7826637179844518e+00 3.7272996946308883e+00 1.3525568569011511e+01 0 0 0
301 4 7.7592920952990454e+00 5.2119475270957114e+00 1.1968069542585505e+01 0 0 0
302 5 1.1358172306845415e+01 5.4159984883034848e+00 1.0374282914451449e+01 0 0 0
303 6 1.1366844722934601e+01 5.4264271559866941e+00 1.3493641673672659e+01 0 0 0
304 4 1.0368481202813323e+01 6.9208210943693329e+00 1.1933264693789360e+01 0 0 0
305 5 1.3967262382582049e+01 7.1284501792677695e+00 1.0374282215097535e+01 0 0 0
306 6 1.3953895492120971e+01 7.1307462327471596e+00 1.3493640987164573e+01 0 0 0
307 4 1.2977750562304623e+01 8.6364484960566408e+00 1.1933263878149935e+01 0 0 0
308 5 1.6559522660092068e+01 8.8563628935092247e+00 1.0390200256079936e+01 0 0 0
309 6 1.6545915519122495e+01 8.8551167658260947e+00 1.3509460401774950e+01 0 0 0
310 4 1.5578292518324545e+01 1.0367450715272927e+01 1.1951258579156338e+01 0 0 0
311 5 1.9141136777422922e+01 1.0594574787752533e+01 1.0398258899188907e+01 0 0 0
312 6 1.9142639002832823e+01 1.0595334358598182e+01 1.3517788963735267e+01 0 0 0
313 4 1.8169614586404261e+01 1.2107445451005278e+01 1.1962043456607278e+01 0 0 0
314 5 2.1729684696242870e+01 1.2329441214548762e+01 1.0390534463669120e+01 0 0 0
315 6 2.1740731797621994e+01 1.2332383519684155e+01 1.3510662569159917e+01 0 0 0
316 4 2.0757870015767054e+01 1.3840190738734282e+01 1.1955703250004039e+01 0 0 0
317 5 2.4336744152050223e+01 1.4050814739471123e+01 1.0382448414817414e+01 0 0 0
318 6 2.4336744686478546e+01 1.4050815004818748e+01 1.3502979120758113e+01 0 0 0
319 4 2.3349115200652548e+01 1.5554685424094940e+01 1.1946072129241545e+01 0 0 0
320 5 2.6956474524071339e+01 1.5760822927568647e+01 1.0397001563649246e+01 0 0 0
321 6 2.6929154089040683e+01 1.5753273504829350e+01 1.3516876599870887e+01 0 0 0
322 4 2.5943776683136917e+01 1.7255523517209365e+01 1.1955702413961141e+01 0 0 0
323 5 2.9569400598681561e+01 1.7472392050243588e+01 1.0442513338030594e+01 0 0 0
324 6 2.9518097401250291e+01 1.7458546956641221e+01 1.3560513753585706e+01 0 0 0
325 4 2.8536183920630489e+01 1.8959910481962019e+01 1.1994423288438856e+01 0 0 0
326 5 3.2158414814230539e+01 1.9198147011489564e+01 1.0502734289845856e+01 0 0 0
327 6 3.2106232126941087e+01 1.9186462816372597e+01 1.3618771381536648e+01 0 0 0
328 4 3.1120591265742963e+01 2.0684003081192785e+01 1.2048778045696253e+01 0 0 0
329 4 2.1529114879644599e+01 1.3538401263312969e+00 1.2088873080086108e+01 0 1 0
330 4 1.0561591121123898e+01 3.8134393136906888e+00 1.1945833469446312e+01 0 0 0
331 5 1.4161287618576660e+01 4.0032157727470281e+00 1.0388665495248276e+01 0 0 0
332 6 1.4137047406563777e+01 4.0227485975946085e+00 1.3507652499944170e+01 0 0 0
333 4 1.3158893415408155e+01 5.5189414494617290e+00 1.1933264292788509e+01 0 0 0
334 5 1.6750718331449988e+01 5.7168097230732018e+00 1.0407079702476317e+01 0 0 0
335 6 1.6717473551151691e+01 5.7423429482645272e+00 1.3525567012424561e+01 0 0 0
336 4 1.5753410492821400e+01 7.2398696887925968e+00 1.1945832323598720e+01 0 0 0
337 5 1.9327426335586566e+01 7.4495095304799337e+00 1.0421402884461580e+01 0 0 0
338 6 1.9308489894070437e+01 7.4816943266627387e+00 1.3539929564453296e+01 0 0 0
339 4 1.8342922000954431e+01 8.9769703265597478e+00 1.1960054699218786e+01 0 0 0
340 5 2.1907369488984351e+01 9.1906654036070030e+00 1.0415503435400344e+01 0 0 0
341 6 2.1908859390535799e+01 9.2257105904333638e+00 1.3534606384530621e+01 0 0 0
342 4 2.0932190727913905e+01 1.0716718077930549e+01 1.1958277041680644e+01 0 0 0
343 5 2.4507789250319203e+01 1.0927057345842041e+01 1.0397002936790955e+01 0 0 0
344 6 2.4514911835460786e+01 1.0954493535101049e+01 1.3516877914175479e+01 0 0 0
345 4 2.3528169222891695e+01 1.2443567249568565e+01 1.1946072431939154e+01 0 0 0
346 5 2.7131026476438169e+01 1.2653721133427688e+01 1.0390533996418100e+01 0 0 0
347 6 2.7122955596703282e+01 1.2661817885333262e+01 1.3510662124476038e+01 0 0 0
348 4 2.6132949129230219e+01 1.4154192178855647e+01 1.1946071778699476e+01 0 0 0
349 4 2.8740524736209384e+01 1.5860392439320547e+01 1.1976272665816184e+01 0 0 0
350 4 3.1340612130556792e+01 1.7579722275913451e+01 1.2032878763003680e+01 0 0 0
351 4 1.5943416334575016e+01 4.1137537551182124e+00 1.1968067785806445e+01 0 0 0
352 5 1.9533644648301294e+01 4.3213104029544898e+00 1.0465981463929383e+01 0 0 0
353 6 1.9495556455198486e+01 4.3627023913524443e+00 1.3582845647722831e+01 0 0 0
354 4 1.8526119401119413e+01 5.8469093041831171e+00 1.1990158904679294e+01 0 0 0
355 5 2.2100666790385446e+01 6.0632881597385895e+00 1.0468458187081065e+01 0 0 0
356 6 2.2091234907509648e+01 6.1156424749277454e+00 1.3585568514164612e+01 0 0 0
357 4 2.1109696159085026e+01 7.5920554448102067e+00 1.1994259171935873e+01 0 0 0
358 5 2.4683589386981758e+01 7.8084126648819527e+00 1.0442515958891271e+01 0 0 0
359 6 2.4697250703122943e+01 7.8597657602831132e+00 1.3560516278402480e+01 0 0 0
360 4 2.3701994360589673e+01 9.3322402012131764e+00 1.1976274703636896e+01 0 0 0
361 4 2.6308587029401416e+01 1.1056730322414568e+01 1.1955703494787350e+01 0 0 0
362 4 1.8731060411559469e+01 2.7227338281148459e+00 1.2029794137028022e+01 0 0 0
363 5 2.2319496237375919e+01 2.9554626715614671e+00 1.0522636476157908e+01 0 0 0
364 6 2.2299731511566780e+01 2.9948798391083677e+00 1.3638193914613037e+01 0 0 0
365 4 2.1308016739419177e+01 4.4701412123603603e+00 1.2048450668913901e+01 0 0 0
366 4 2.3890934930651930e+01 6.2208333909298172e+00 1.2032881490259301e+01 0 0 0
