LAMMPS data file via write_data, version 30 Mar 2018, timestep = 1529

148 atoms
2 atom types

0.0000000000000000e+00 1.4963596465800000e+01 xlo xhi
0.0000000000000000e+00 1.2958855110800000e+01 ylo yhi
0.0000000000000000e+00 1.0000000000000000e+02 zlo zhi
7.4817974716000002e+00 0.0000000000000000e+00 0.0000000000000000e+00 xy xz yz

Masses

1 12.011
2 12.011

Atoms # atomic

1 1 1.3548292435088575e+01 1.1816631117429688e-01 9.9880517933823100e+01 -1 1 -1
2 1 8.0998695302016133e-01 1.1666058939025623e+00 9.9880517930679559e+01 0 1 -1
3 1 1.8601475560286218e+01 9.5753795659715610e+00 9.9925150020985427e+01 -1 0 -1
4 1 2.0825582892292527e+01 1.0625444311519612e+01 9.9894737585478254e+01 -1 0 -1
5 1 2.0220200121401309e+01 1.1910324370287263e+01 9.9890305577802650e+01 -1 0 -1
6 1 8.0871143290773606e+00 1.1674082572232885e+01 9.9880517934571998e+01 0 0 -1
7 1 7.4817974088771333e+00 1.2958854961074868e+01 9.9875292515239920e+01 0 0 -1
8 1 1.0312495831380856e+01 1.2722762725814874e+01 9.9894737579339974e+01 0 0 -1
9 1 2.2252581612754820e+00 1.0486839395517833e+00 9.9890191333155414e+01 0 1 -1
10 1 5.0556461265923787e+00 8.1422435617127076e-01 9.9925507039035267e+01 0 1 -1
11 1 4.4498639082079050e+00 2.0989709401298571e+00 9.9922618347281897e+01 0 1 -1
12 1 7.2802636566947427e+00 1.8672462194871771e+00 9.9944651370880891e+01 0 1 -1
13 1 1.6178602082152437e+01 6.0706869378519936e+00 9.9936641223866971e+01 -1 0 -1
14 1 1.8400408956943082e+01 7.1221396720621852e+00 9.9940616075117006e+01 -1 0 -1
15 1 1.7794153433077781e+01 8.4071142198573874e+00 9.9940262828822284e+01 -1 0 -1
16 1 5.6591136070019470e+00 8.1734245332032494e+00 9.9925507042612495e+01 0 0 -1
17 1 2.0016801923529894e+01 9.4583002984026390e+00 9.9913964690694073e+01 -1 0 -1
18 1 7.8832475203568979e+00 9.2229573300279508e+00 9.9907208177141698e+01 0 0 -1
19 1 7.2773554422639730e+00 1.0507382645817550e+01 9.9890191337758921e+01 0 0 -1
20 1 1.0108511114152984e+01 1.0271848748639389e+01 9.9906764449735988e+01 0 0 -1
21 1 9.5024484964223408e+00 1.1556045818964247e+01 9.9890305572977056e+01 0 0 -1
22 1 1.2333932324568689e+01 1.1321661527755262e+01 9.9925150011886558e+01 0 0 -1
23 1 1.1727662671871716e+01 1.2605909715878823e+01 9.9913964683767972e+01 0 0 -1
24 1 1.4559033632896458e+01 1.2374152557047790e+01 9.9940616074764080e+01 0 0 -1
25 1 6.4708426607317371e+00 6.9956568277373610e-01 9.9938061345023627e+01 0 1 -1
26 1 9.3022913280706074e+00 4.6877841452593899e-01 9.9931673904118057e+01 0 1 -1
27 1 8.6957015167361060e+00 1.7529047810560010e+00 9.9938958367995781e+01 0 1 -1
28 1 1.1527489173493073e+01 1.5202828996800122e+00 9.9907208172656340e+01 0 1 -1
29 1 1.5977254995072817e+01 3.6183037597192058e+00 9.9906764444519212e+01 -1 0 -1
30 1 1.5371030586326050e+01 4.9027719461971326e+00 9.9923605788270976e+01 -1 0 -1
31 1 3.2366262685228993e+00 4.6684447714838422e+00 9.9931673900410772e+01 0 0 -1
32 1 1.7594078990502219e+01 5.9534545196850841e+00 9.9938712522799051e+01 -1 0 -1
33 1 5.4587486060280739e+00 5.7203381891288965e+00 9.9944651371667248e+01 0 0 -1
34 1 4.8522181396890156e+00 7.0051576383791136e+00 9.9938061346465943e+01 0 0 -1
35 1 7.6818973728023998e+00 6.7717018342807274e+00 9.9938804108731119e+01 0 0 -1
36 1 7.0746278747522844e+00 8.0556739384558984e+00 9.9922618348172506e+01 0 0 -1
37 1 9.9064761217519202e+00 7.8216315909217835e+00 9.9931673895379120e+01 0 0 -1
38 1 9.2988443276613175e+00 9.1049382589650225e+00 9.9913775777209054e+01 0 0 -1
39 1 1.2131663643243689e+01 8.8712853362112511e+00 9.9936641223353874e+01 0 0 -1
40 1 1.1524005378801853e+01 1.0154620296908517e+01 9.9923605796071840e+01 0 0 -1
41 1 1.4356436774421192e+01 9.9227300825159421e+00 9.9945451429366969e+01 0 0 -1
42 1 1.3749340846706716e+01 1.1206632578996285e+01 9.9940262824565593e+01 0 0 -1
43 1 1.6580521930882345e+01 1.0975737609831452e+01 9.9936641236100343e+01 0 0 -1
44 1 1.5974309639111073e+01 1.2260192751147427e+01 9.9938712529466784e+01 0 0 -1
45 1 1.8805021545269323e+01 1.2027557378724600e+01 9.9906764457843508e+01 0 0 -1
46 1 1.0717483381489492e+01 3.5334955446327299e-01 9.9913775781387642e+01 0 1 -1
47 1 1.2942780146378222e+01 1.4027880759441491e+00 9.9890191329753748e+01 0 1 -1
48 1 1.5168139068403567e+01 2.4513395828911513e+00 9.9890305565603796e+01 -1 0 -1
49 1 3.0346570240011346e+00 2.2156145485251417e+00 9.9907208175211309e+01 0 0 -1
50 1 2.4290660408652913e+00 3.5005668495423690e+00 9.9913775775630540e+01 0 0 -1
51 1 5.2581815663352032e+00 3.2668678237212543e+00 9.9938804111840511e+01 0 0 -1
52 1 4.6520072095236333e+00 4.5517036822073065e+00 9.9938958369295634e+01 0 0 -1
53 1 7.4817979057022201e+00 4.3196182607401745e+00 9.9950324801399034e+01 0 0 -1
54 1 6.8742946675935519e+00 5.6036083176853291e+00 9.9945117719873750e+01 0 0 -1
55 1 9.7063814549247649e+00 5.3712703705618807e+00 9.9944651361028875e+01 0 0 -1
56 1 9.0976850241045391e+00 6.6542462023400581e+00 9.9938958362448986e+01 0 0 -1
57 1 1.1931345066506029e+01 6.4214176552564926e+00 9.9940616059660272e+01 0 0 -1
58 1 1.1322399058888994e+01 7.7040625014843460e+00 9.9938712515543358e+01 0 0 -1
59 1 1.4155637572697600e+01 7.4716747329743702e+00 9.9945451421644947e+01 0 0 -1
60 1 1.3547468407955503e+01 8.7550777150912626e+00 9.9947159769379965e+01 0 0 -1
61 1 1.6378713310801444e+01 8.5233050662531351e+00 9.9945451431604056e+01 0 0 -1
62 1 1.5771980923994530e+01 9.8077184420503354e+00 9.9947159778214683e+01 0 0 -1
63 1 1.7995751722775111e+01 1.0860317527110592e+01 9.9923605807401458e+01 0 0 -1
64 1 6.6735815700001915e+00 3.1515099751041014e+00 9.9945117720871508e+01 0 0 -1
65 1 9.5053147787090388e+00 2.9202851214557843e+00 9.9938804105368718e+01 0 0 -1
66 1 8.8975175124758064e+00 4.2037363739120766e+00 9.9945117714474890e+01 0 0 -1
67 1 1.1730633985406300e+01 3.9712058870031610e+00 9.9925507025370180e+01 0 0 -1
68 1 1.1122332950753393e+01 5.2541313420776561e+00 9.9938061329758824e+01 0 0 -1
69 1 1.3955379771039738e+01 5.0206687907672913e+00 9.9925149999620473e+01 0 0 -1
70 1 1.3347293409594032e+01 6.3039629705626155e+00 9.9940262810326004e+01 0 0 -1
71 1 1.5571338358516979e+01 7.3549136100732131e+00 9.9947159769947064e+01 0 0 -1
72 1 1.0920901967774341e+01 2.8042097855076413e+00 9.9922618338045538e+01 0 0 -1
73 1 1.3752708930995535e+01 2.5695028499323413e+00 9.9894737570889589e+01 0 0 -1
74 1 1.3146323092717710e+01 3.8534997573165199e+00 9.9913964669562844e+01 0 0 -1
75 2 2.1030089987917538e+01 1.2840688565107856e+01 3.4194820652455977e+00 -1 0 0
76 2 1.5568913238625354e+01 1.2847723036644585e+00 3.4194820687505603e+00 -1 1 0
77 2 1.7188179622808676e+01 7.5875845077117177e+00 3.3553486271875461e+00 -1 0 0
78 2 1.9212431990558418e+01 8.9876489893472300e+00 3.3744929537815320e+00 -1 0 0
79 2 1.8402699852152921e+01 1.0154645024345854e+01 3.3773816450450238e+00 -1 0 0
80 2 6.2709103060152840e+00 1.0389352025498553e+01 3.4052624142049548e+00 0 0 0
81 2 2.0424577867218616e+01 1.1556066732345167e+01 3.4098086601185935e+00 -1 0 0
82 2 8.2917846286716248e+00 1.1792248981207662e+01 3.4194820646961603e+00 0 0 0
83 2 7.4817974932269831e+00 1.2958854958747882e+01 3.4247074840097431e+00 0 0 0
84 2 2.8306983984620655e+00 2.3609214971950152e-01 3.4052624194831433e+00 0 1 0
85 2 2.0206509441909413e+00 1.4028089893156335e+00 3.4096944275350349e+00 0 1 0
86 2 4.8521347275857281e+00 1.6371933456252765e+00 3.3748499847618416e+00 0 1 0
87 2 1.5365046140331696e+01 3.7358975474166844e+00 3.3927918315293284e+00 -1 0 0
88 2 1.7388274576796135e+01 5.1372232857546587e+00 3.3683260997376974e+00 -1 0 0
89 2 1.6579483358516931e+01 6.3046086084221242e+00 3.3610416338045117e+00 -1 0 0
90 2 4.4495468932467563e+00 6.5374372206168552e+00 3.3593839235141978e+00 0 0 0
91 2 1.8604131122608941e+01 7.7047234672813820e+00 3.3619386511516263e+00 -1 0 0
92 2 6.4735814337622957e+00 7.9381860832107662e+00 3.3748499826700300e+00 0 0 0
93 2 5.6645246360073047e+00 9.1053550505818830e+00 3.3860353092069384e+00 0 0 0
94 2 8.4954564930574108e+00 9.3405511145911113e+00 3.3932355471819045e+00 0 0 0
95 2 7.6863404470736612e+00 1.0507515225428953e+01 3.4096944232508171e+00 0 0 0
96 2 1.0516454821945906e+01 1.0743240326318492e+01 3.3927918246650375e+00 0 0 0
97 2 9.7070558395428090e+00 1.1910170868259407e+01 3.4098086645083141e+00 0 0 0
98 2 1.2537443760636108e+01 1.2144630517633695e+01 3.3744929612654238e+00 0 0 0
99 2 4.2458652418133953e+00 3.5294509165962629e-01 3.3860353150901754e+00 0 1 0
100 2 7.0772361603849108e+00 5.8470231677053219e-01 3.3593839254846229e+00 0 1 0
101 2 6.2675432523756793e+00 1.7522222271915138e+00 3.3597371744623032e+00 0 1 0
102 2 9.0987242951885214e+00 1.9831172634544352e+00 3.3633587729646188e+00 0 1 0
103 2 1.4759154231586095e+01 2.4514721630369620e+00 3.4098086725037073e+00 -1 0 0
104 2 2.6267133933255664e+00 2.6870061276723973e+00 3.3932355486311954e+00 0 0 0
105 2 1.6780642951360850e+01 3.8539165510896929e+00 3.3862242242737235e+00 -1 0 0
106 2 4.6498657570106277e+00 4.0875695393284328e+00 3.3633587679281867e+00 0 0 0
107 2 3.8406010523023060e+00 5.2547923064255277e+00 3.3612874732178084e+00 0 0 0
108 2 6.6738395227279694e+00 5.4871801395336961e+00 3.3545485692660684e+00 0 0 0
109 2 5.8654952393674087e+00 6.6548918368128414e+00 3.3597371723131051e+00 0 0 0
110 2 8.6968038672631565e+00 6.8881679347866136e+00 3.3633587737355892e+00 0 0 0
111 2 7.8892322533340060e+00 8.0560828610742856e+00 3.3763941994878257e+00 0 0 0
112 2 1.0718424354194514e+01 8.2904101021359136e+00 3.3683261043183617e+00 0 0 0
113 2 9.9108640074140215e+00 9.4582879588072721e+00 3.3862242220143295e+00 0 0 0
114 2 1.2739979487770976e+01 9.6919870525053415e+00 3.3611958927679666e+00 0 0 0
115 2 1.1931661708511182e+01 1.0859883869043179e+01 3.3773816545679423e+00 0 0 0
116 2 1.4762061414232235e+01 1.1091608657199062e+01 3.3553486272283393e+00 0 0 0
117 2 1.3952640296347626e+01 1.2259289126697222e+01 3.3619386552062829e+00 0 0 0
118 2 1.6784088922814718e+01 1.2490076462176575e+01 3.3683260939655471e+00 0 0 0
119 2 8.4925121687035343e+00 6.9866205829852224e-01 3.3612874743898167e+00 0 1 0
120 2 1.1323224032090772e+01 9.3129749731926281e-01 3.3932355499287734e+00 0 1 0
121 2 1.0513954088005544e+01 2.0985372811534782e+00 3.3763942075224831e+00 0 1 0
122 2 4.0422076604930481e+00 2.8042345101489636e+00 3.3763941991482715e+00 0 0 0
123 2 6.8746390136685447e+00 3.0361247902864545e+00 3.3545485696573785e+00 0 0 0
124 2 6.0656705258824672e+00 4.2037770905343379e+00 3.3528402235069579e+00 0 0 0
125 2 8.8969153839502155e+00 4.4355498054135545e+00 3.3545485764240630e+00 0 0 0
126 2 8.0895403118495963e+00 5.6039411950984821e+00 3.3528402282252472e+00 0 0 0
127 2 1.0918610865375376e+01 5.8367152006369354e+00 3.3593839394086777e+00 0 0 0
128 2 1.0112280779127721e+01 7.0054002889594598e+00 3.3612874825273296e+00 0 0 0
129 2 1.2940546814463710e+01 7.2385166877001783e+00 3.3553486399640780e+00 0 0 0
130 2 1.2133805298898615e+01 8.4071511281074152e+00 3.3610416380981509e+00 0 0 0
131 2 1.4963595949737158e+01 8.6392366179929319e+00 3.3496751979261932e+00 0 0 0
132 2 1.4155379493000876e+01 9.8073448365820681e+00 3.3548822801396456e+00 0 0 0
133 2 1.6987112659523348e+01 1.0038569757057189e+01 3.3611958822802039e+00 0 0 0
134 2 1.6177499276438521e+01 1.1205950030557242e+01 3.3610416263009495e+00 0 0 0
135 2 1.9009286891234691e+01 1.1438571976970033e+01 3.3927918166433026e+00 0 0 0
136 2 1.8199280978582149e+01 1.2605505256172904e+01 3.3862242173513253e+00 0 0 0
137 2 1.2738402611659854e+01 1.0485304387526069e+00 3.4096944306334143e+00 0 1 0
138 2 8.2901831650674342e+00 3.1511363642377184e+00 3.3528402286871892e+00 0 0 0
139 2 1.1119677758019881e+01 3.3834753086923612e+00 3.3748499979788709e+00 0 0 0
140 2 1.0312355510122153e+01 4.5517405872378145e+00 3.3597371874636988e+00 0 0 0
141 2 1.3140912103052843e+01 4.7854303419316615e+00 3.3744929758412772e+00 0 0 0
142 2 1.2334016516479052e+01 5.9536971714595186e+00 3.3619386703409715e+00 0 0 0
143 2 1.5163695704516016e+01 6.1871530431335193e+00 3.3611958969530114e+00 0 0 0
144 2 1.4356092879831309e+01 7.3552464949755443e+00 3.3548822864109420e+00 0 0 0
145 2 1.6379315560513390e+01 8.7551184369995916e+00 3.3548822761948012e+00 0 0 0
146 2 1.3343785213904466e+01 2.3334105641409097e+00 3.4052624284249164e+00 0 0 0
147 2 1.2535004123697661e+01 3.5005545113826981e+00 3.3860353295388030e+00 0 0 0
148 2 1.4556426375490116e+01 4.9031808717431060e+00 3.3773816647905721e+00 0 0 0

Velocities

1 -4.9266835215510428e-06 -7.0204736610761246e-05 -2.8461703010309743e-05
2 -5.4382364445579261e-05 4.1461712229408956e-05 -2.8431513596968793e-05
3 -5.5975541703842981e-05 -1.6330081929913321e-04 -3.3034712290876423e-05
4 6.6444480435638554e-05 2.3450082163029633e-05 -3.0973194750304421e-05
5 6.7553457703628574e-05 3.4682714953614531e-05 -3.0652136314225333e-05
6 5.6386381342374608e-05 2.7927751900303425e-05 -2.8461269772127574e-05
7 -1.5818869044747867e-06 -2.4961174073949226e-06 -2.7815478094829118e-05
8 -4.6097283632806541e-05 4.2791796012395712e-05 -3.0874530389211977e-05
9 5.8743221248176596e-05 -2.8147302523601449e-05 -2.9305553372874994e-05
10 -7.2432705249627036e-05 -6.2854321475898248e-05 -3.5392888156583146e-05
11 -6.4698351254973265e-05 -9.2220689260837744e-06 -3.5061056831311564e-05
12 8.4732854171729808e-05 1.4768224279491114e-05 -3.7434046584998006e-05
13 -3.5908536316804053e-05 -1.6797474218903036e-04 -3.7599095671901767e-05
14 1.4173089235420760e-04 3.3870060409842384e-05 -3.6558175027266733e-05
15 1.4657875056759478e-04 1.0282234559425924e-04 -3.8257564173685474e-05
16 -2.7878855212024126e-05 9.4080742182810347e-05 -3.5366660207557054e-05
17 3.5349707578126472e-05 -9.6535032093771119e-05 -3.1999954976714247e-05
18 -7.3756671463457864e-05 -2.6516138378558766e-05 -3.2008269603081785e-05
19 -5.8962660067379791e-05 -2.9716136304506739e-05 -2.9362938192145711e-05
20 -3.3421949812951323e-05 -8.3892006428076999e-05 -3.1560699774816675e-05
21 -5.7744126427255832e-05 3.5274771424441905e-05 -3.0575545714800820e-05
22 1.6593449713718451e-04 2.7957566683643278e-05 -3.3059864189495195e-05
23 5.8226322417830533e-05 7.9025537886898579e-05 -3.2098690765823654e-05
24 -9.6068214062762500e-05 1.0582002483844419e-04 -3.6558866341601239e-05
25 5.6215155155152475e-05 -1.1838254099840827e-04 -3.5848587944084111e-05
26 -2.8755511509390001e-05 -1.2516077541407193e-04 -3.5036235615508747e-05
27 -7.3978088596955498e-05 7.2036084470842687e-05 -3.5894073453787065e-05
28 2.3318285669301836e-05 7.6339551335481544e-05 -3.2132865578511979e-05
29 9.5866818186798864e-05 1.4043423686436242e-05 -3.1505430575273208e-05
30 1.2900828094707846e-04 9.7233537646953321e-05 -3.3272506536990862e-05
31 -9.8207703748902418e-05 8.6887196732599284e-05 -3.5071748767816308e-05
32 8.2512396683593446e-06 -1.3637832356402165e-04 -3.6929944459873486e-05
33 -2.2178842633661655e-05 -8.5645580339333810e-05 -3.7403197007153593e-05
34 -1.3183437260893708e-04 1.8207833984712995e-05 -3.5906621901884446e-05
35 2.6121661537269157e-05 -2.9590386167252871e-05 -3.6064052486789863e-05
36 3.3858088800598968e-05 5.7142556051604503e-05 -3.5037171607086936e-05
37 1.1602094976795871e-04 3.8196768419389010e-05 -3.5086681269346867e-05
38 8.0335523608354126e-05 5.0918496742847420e-05 -3.2935918339249726e-05
39 -1.2430211415783910e-04 1.1257088710623034e-04 -3.7534813062846891e-05
40 1.8354080467702340e-05 -1.5677121610587622e-04 -3.3288998267037457e-05
41 -6.2843356234484980e-05 -1.8000594899123256e-04 -3.6614369036587915e-05
42 -1.5993940649000697e-04 7.1359687979589184e-05 -3.8228881480831734e-05
43 1.6542878356516977e-04 5.1324103584228839e-05 -3.7603996380168929e-05
44 1.1021019346792518e-04 7.6410541125076465e-05 -3.6938066670448795e-05
45 -6.3340345945910617e-05 7.6315377127343477e-05 -3.1467736401344541e-05
46 6.6498975821845274e-06 -1.0280618752870306e-04 -3.2978275853230437e-05
47 -5.3412396782579681e-06 6.8451508058221293e-05 -2.9270963503947528e-05
48 -9.3750968249323797e-08 -7.4072778271380018e-05 -3.0628744900270324e-05
49 5.6432354822123090e-05 -5.8814136692628235e-05 -3.2129659993717701e-05
50 -9.0663843120692764e-05 4.7637835421337094e-05 -3.2935082971147174e-05
51 2.1277646390407464e-05 4.0517359022044670e-05 -3.5973878683063047e-05
52 1.0369886367927836e-04 2.4670811030292969e-05 -3.5893586986935197e-05
53 -5.4417492977932814e-06 4.7779208821637012e-07 -3.7954752092315343e-05
54 1.7386793815187688e-05 -3.3030418686970982e-06 -3.6860363519393457e-05
55 -5.3729447189795360e-05 5.7040873434158451e-05 -3.7403437978663774e-05
56 -3.0532619207425533e-05 -9.2593740781758729e-05 -3.5923704930162266e-05
57 -4.1599569662267139e-05 -1.3136809714208244e-04 -3.6570792355895872e-05
58 -1.1489041767709631e-04 5.6153740203244675e-05 -3.6922613889121472e-05
59 1.8822791540182288e-04 3.5807521810257084e-05 -3.6615827913396884e-05
60 1.4609692882262793e-04 1.2287487592093366e-04 -3.6969447635405080e-05
61 -1.2870374722353191e-04 1.4558477867315203e-04 -3.6608263701848077e-05
62 3.2893537729659362e-05 -1.9135655566914831e-04 -3.6952537126427010e-05
63 -1.5068804094484772e-04 6.6474820389357468e-05 -3.3267704444488194e-05
64 -1.3777682418589892e-05 2.1867265099801756e-05 -3.6882685872175972e-05
65 -4.1738897970570730e-05 1.5429825212516811e-06 -3.6005702150011932e-05
66 -3.7945095605432545e-06 -2.0505252995358744e-05 -3.6909833964690080e-05
67 8.9118781416014844e-05 -2.9162512535704483e-05 -3.5367583689977735e-05
68 7.1929062263621120e-05 1.0350178420996832e-04 -3.5863418598338262e-05
69 -1.0912433973295483e-04 1.2880884502067600e-04 -3.3041261202839249e-05
70 1.6780114467626985e-05 -1.7426579514112021e-04 -3.8213042419822695e-05
71 -1.8053732605043476e-04 6.7868508754209830e-05 -3.6957964811914788e-05
72 3.7028509088298161e-05 -5.0227342536060475e-05 -3.5013177460047273e-05
73 -1.6154044416327822e-05 -6.3026185231077739e-05 -3.0899556922010208e-05
74 -9.6164672365711741e-05 1.2093047120674593e-05 -3.2116927901903597e-05
75 -4.6430173440573014e-06 5.7256182083247882e-05 2.8456317037574412e-05
76 6.8304372560428040e-05 -1.9909701307887389e-05 2.8373800342959598e-05
77 -4.8988259040811099e-05 -6.8380088762239399e-05 3.7457616363244193e-05
78 8.9759135415273605e-05 3.4724361437304770e-05 3.5388673066882624e-05
79 3.9131094592162427e-05 4.7359186268664587e-05 3.5036836152985224e-05
80 -1.2029935132829742e-05 5.9604840132513363e-05 3.0874626519059014e-05
81 -3.3896370408848075e-07 -5.8780168370266693e-05 2.9371310301296635e-05
82 -6.0852690652733842e-05 -3.1423892969725514e-05 2.8515894365345445e-05
83 3.7942434413431934e-07 -1.1436251147972619e-05 2.7819035862648675e-05
84 -4.3063712057435934e-05 -5.6095941224379297e-05 3.0864037965073381e-05
85 -7.0497160048640220e-05 -2.7770355931045041e-05 3.0639841809029584e-05
86 1.6703185477808256e-04 -1.8060784197371587e-05 3.2996726663835984e-05
87 -6.8251152701007093e-05 5.1106305094577894e-06 3.2280656633258308e-05
88 1.2382539985315090e-04 -2.3171326563613616e-05 3.4865340909782147e-05
89 -1.4024179468868467e-05 9.4605883870430208e-05 3.5927107829799082e-05
90 -5.1498812623815095e-05 1.2716571726488596e-04 3.6576643416129712e-05
91 6.8249032948187124e-05 -1.0863051901991324e-04 3.5795381912519783e-05
92 -1.0162055355047327e-04 -1.2760708514441058e-04 3.3091659757455549e-05
93 -9.7030496619460302e-05 -9.5814818732420603e-06 3.2130654211205241e-05
94 8.9355257746000298e-05 -1.4028870707406239e-05 3.1544500041911173e-05
95 -3.4314754943186787e-06 6.8486500917010800e-05 3.0578575169685992e-05
96 6.0463100841741777e-05 5.4152500661298538e-05 3.2032369764175849e-05
97 6.3152126473458111e-05 3.7951306644203962e-05 2.9295178041855151e-05
98 -7.5486014602994732e-05 6.9199746914246177e-05 3.5430091240142067e-05
99 5.6963847022505855e-05 -8.8555086900603041e-05 3.2135069552018899e-05
100 -8.6991868894412198e-05 -1.1140863650856268e-04 3.6572120850868302e-05
101 -1.6201423261065278e-04 -6.0316350310083320e-05 3.8221223445496398e-05
102 1.5377939055340192e-04 -3.9679987380108174e-05 3.7462963852327305e-05
103 -4.2623960527439889e-05 4.1017858316003433e-05 2.9264511033052392e-05
104 -4.8799346421452008e-05 8.9039818081088751e-05 3.1655068442121607e-05
105 7.7761352009395431e-05 -6.8687757322565067e-05 3.3121297158718805e-05
106 -1.1291353784482360e-04 -1.2457871413161696e-04 3.7542986289627295e-05
107 -1.2437876251199232e-04 -4.2875800690879856e-05 3.6932656916788678e-05
108 1.8209263742284765e-04 -2.2962608628723478e-05 3.6652828317369760e-05
109 2.7477647407666144e-05 1.6507843174286575e-04 3.8174003180450278e-05
110 -3.8105048820369488e-05 1.5397064800184946e-04 3.7454897634785903e-05
111 1.2049340760917528e-04 -9.0850116455035555e-05 3.3318904129454269e-05
112 -8.8284820230415324e-05 -7.6156361186673039e-05 3.5108580067568323e-05
113 -8.3838018805679649e-05 -4.7379329849590114e-05 3.2906084523941523e-05
114 1.3929004075536268e-05 -4.2104169289211564e-05 3.6026900792410915e-05
115 -6.7668437353837489e-05 4.8523303590958805e-06 3.5086069847676358e-05
116 8.3207053333611824e-05 -1.6400577396176097e-05 3.7428827051798156e-05
117 5.8271365109313664e-05 1.1936678825976255e-04 3.5819371833721898e-05
118 -2.9490846980996027e-05 1.2113568177159132e-04 3.5016732519137908e-05
119 1.0156151585154215e-04 -7.8479518914567435e-05 3.6919120000776138e-05
120 -4.9144641148553732e-05 -7.3480541462770760e-05 3.1658182602482764e-05
121 -1.4065416373691016e-04 -5.2412763147498739e-05 3.3266950732648603e-05
122 3.2882958707771327e-05 1.5731583847754368e-04 3.3133106017009431e-05
123 -7.0769196539790193e-05 1.7291692623493286e-04 3.6650240997560107e-05
124 1.3578037927772222e-04 -1.2846401235128035e-04 3.7011076091878765e-05
125 -1.1148139196184436e-04 -1.4349525523018353e-04 3.6656653020391961e-05
126 -1.7578087923223427e-04 -5.5013221384531567e-05 3.7014005828018083e-05
127 1.2496425607739063e-04 -2.3868289747787293e-05 3.6565143353290135e-05
128 1.2925614179747871e-05 1.1873563168499308e-04 3.6892900670699872e-05
129 -1.9577242318796053e-05 6.7912630665245758e-05 3.7411186450582178e-05
130 9.1697601569963900e-05 -1.4093676902108528e-05 3.5953661784752676e-05
131 2.2066938679233492e-06 1.0646437983274690e-05 3.7948503312492768e-05
132 -6.1714578650052999e-06 -2.2376584500453562e-05 3.6849177735989831e-05
133 -4.3547026438967885e-05 -3.5104351351522355e-06 3.5987862945826605e-05
134 -7.2311879284113327e-05 -6.9559221146841226e-05 3.5912097843881059e-05
135 1.6983743863317134e-05 -7.1094131037771963e-05 3.2079657961562433e-05
136 8.3752475180669763e-06 9.3340262348995349e-05 3.2976618330373073e-05
137 5.2802306823788307e-05 -3.0887158907472004e-05 3.0499545859045384e-05
138 4.2075831824263427e-05 1.7761608406629387e-04 3.7021073787696029e-05
139 -5.6646690064152819e-05 1.4434558469797720e-04 3.3150817673502088e-05
140 1.2839587333285217e-04 -9.6765610635113071e-05 3.8105007082049399e-05
141 -1.1174778348839030e-05 -8.1778378524224052e-05 3.5276738316418798e-05
142 -1.1635683730156701e-04 -8.5210027616116692e-06 3.5865449775118174e-05
143 9.0378183950977824e-06 3.3898210493902575e-05 3.6056890372783337e-05
144 1.7430676860031888e-05 -1.2206933179372596e-05 3.6932214785480334e-05
145 -1.2853702387185779e-05 2.8005746222973015e-05 3.6892617307556416e-05
146 4.8201138814218578e-05 -1.1994055068183123e-05 3.0753223463541320e-05
147 3.9179892308316963e-05 7.4855195516671837e-05 3.2292845281482228e-05
148 1.5208575517770838e-05 -4.4832114039385235e-05 3.4860555917293713e-05
