LAMMPS data file via write_data, version 30 Mar 2018, timestep = 984

546 atoms
6 atom types

0.0000000000000000e+00 2.9724962999999999e+01 xlo xhi
0.0000000000000000e+00 2.5742573000000000e+01 ylo yhi
0.0000000000000000e+00 1.0000000000000000e+02 zlo zhi
1.4862482000000000e+01 0.0000000000000000e+00 0.0000000000000000e+00 xy xz yz

Masses

1 95.94
2 32.066
3 32.066
4 95.94
5 32.066
6 32.066

Atoms # atomic

1 2 2.7931613074076662e+01 8.4473301931965644e-02 4.1838692581983805e+00 -1 1 0
2 3 2.7921477823861160e+01 8.6319067703339816e-02 7.3029243419760652e+00 -1 1 0
3 2 9.6969969593113203e-01 1.5105444533976304e+00 4.1838685991638709e+00 0 1 0
4 3 9.7636667034142621e-01 1.5183996824750217e+00 7.3029236717816897e+00 0 1 0
5 2 3.9864148571365199e+01 2.1327763137506363e+01 4.1667844251664183e+00 -1 0 0
6 3 3.9869428908603595e+01 2.1315403183022646e+01 7.2857005256959724e+00 -1 0 0
7 2 4.2645446565080995e+01 2.2734953830546218e+01 4.1757712464276064e+00 -1 0 0
8 3 4.2644764863764962e+01 2.2718044284010052e+01 7.2947104966545311e+00 -1 0 0
9 1 4.1809874778169494e+01 2.4321011318246079e+01 5.7399359894541027e+00 -1 0 0
10 2 1.5685670217609530e+01 2.4147210033596085e+01 4.1838690552798088e+00 0 0 0
11 3 1.5689139936137218e+01 2.4137509940129114e+01 7.3029241367738722e+00 0 0 0
12 1 4.4587291386299682e+01 2.5742458142574986e+01 5.7469342570962283e+00 -1 0 0
13 2 1.8437824509372156e+01 2.5564522732254709e+01 4.1757701318559688e+00 0 0 0
14 3 1.8452809949461241e+01 2.5572387939850710e+01 7.2947093663353169e+00 0 0 0
15 1 2.7687926414349451e+00 1.4313497459364173e+00 5.7356890397793183e+00 0 1 0
16 2 6.3255962304579336e+00 1.2394382016882770e+00 4.1445444698436278e+00 0 1 0
17 3 6.3518196461442900e+00 1.2677436100644597e+00 7.2628991000831187e+00 0 1 0
18 2 9.0865833301107823e+00 2.6510325677933877e+00 4.0954104477885078e+00 0 1 0
19 3 9.1160518798076868e+00 2.6940250904253098e+00 7.2128086071996336e+00 0 1 0
20 2 3.6919070793748190e+01 1.6836085789281217e+01 4.1527255078123364e+00 -1 0 0
21 3 3.6957228783309922e+01 1.6818317167005159e+01 7.2714158874377803e+00 -1 0 0
22 2 3.9709917049560531e+01 1.8243706035539489e+01 4.1396326917809461e+00 -1 0 0
23 3 3.9736390559022126e+01 1.8214960719549030e+01 7.2580349741231496e+00 -1 0 0
24 1 3.8883338970798107e+01 1.9820794600294011e+01 5.7198874921591187e+00 -1 0 0
25 2 1.2772938155111499e+01 1.9644419825858986e+01 4.1445464801216820e+00 0 0 0
26 3 1.2784338768797110e+01 1.9607557488600250e+01 7.2629011438432522e+00 0 0 0
27 1 4.1666745558559818e+01 2.1221060143583465e+01 5.7236417636373726e+00 -1 0 0
28 2 1.5546304677690625e+01 2.1045334197048561e+01 4.1608468927725291e+00 0 0 0
29 3 1.5548930393665236e+01 2.1011787514824007e+01 7.2794429944018040e+00 0 0 0
30 1 1.4717539525222236e+01 2.2628747503285759e+01 5.7356902891325205e+00 0 0 0
31 2 1.8301899832797286e+01 2.2450530700903794e+01 4.1727281990121785e+00 0 0 0
32 3 1.8304814791589301e+01 2.2434544390597708e+01 7.2916415537141761e+00 0 0 0
33 1 1.7482044997875221e+01 2.4047867648407546e+01 5.7399354325444163e+00 0 0 0
34 2 2.1047136320120853e+01 2.3859442610358997e+01 4.1667836336481034e+00 0 0 0
35 3 2.1055199979578106e+01 2.3870196682408530e+01 7.2856997274874855e+00 0 0 0
36 1 2.0238245536778980e+01 2.5473889670875742e+01 5.7236403589116422e+00 0 0 0
37 2 2.3795124219737087e+01 2.5267902526972218e+01 4.1396314678008954e+00 0 0 0
38 3 2.3806781095722499e+01 2.5305203036803075e+01 7.2580337280754543e+00 0 0 0
39 1 8.1315923259403391e+00 1.1547208601520920e+00 5.6852613190649386e+00 0 1 0
40 2 1.1695516895723765e+01 9.2942530439516513e-01 4.0990742845915484e+00 0 1 0
41 3 1.1703505054762525e+01 9.8401543235357303e-01 7.2165949780154959e+00 0 1 0
42 1 1.0895616654911155e+01 2.5674355676445879e+00 5.6350614556278833e+00 0 1 0
43 2 1.4479056298442693e+01 2.3288734345842652e+00 4.0613383217003056e+00 0 1 0
44 3 1.4473044741354158e+01 2.3858923139719943e+00 7.1780951271463476e+00 0 1 0
45 2 3.3972459074144766e+01 1.2310006345776824e+01 4.1555064937395780e+00 -1 0 0
46 3 3.4018302590696067e+01 1.2296237260269001e+01 7.2741196528374852e+00 -1 0 0
47 2 3.6752599381193427e+01 1.3737984818685698e+01 4.1240273910288145e+00 -1 0 0
48 3 3.6806028883569326e+01 1.3716676012532108e+01 7.2419942962436883e+00 -1 0 0
49 1 3.5954041023482013e+01 1.5322745399282191e+01 5.7117398879753871e+00 -1 0 0
50 2 9.8194999291891456e+00 1.5148939070539713e+01 4.0990753500775012e+00 0 0 0
51 3 9.8627812145778950e+00 1.5114725492233140e+01 7.2165960676519747e+00 0 0 0
52 1 3.8737224106031007e+01 1.6728065643038356e+01 5.6897374250168387e+00 -1 0 0
53 2 1.2614922047830179e+01 1.6547537919891006e+01 4.0954127567014851e+00 0 0 0
54 3 1.2637419298970967e+01 1.6500520900400076e+01 7.2128109546249961e+00 0 0 0
55 1 1.1796572686482460e+01 1.8122740033518816e+01 5.6852632884596517e+00 0 0 0
56 2 1.5400961642817435e+01 1.7941484046930753e+01 4.1146696725707219e+00 0 0 0
57 3 1.5403623684725254e+01 1.7890245740901008e+01 7.2323354317975364e+00 0 0 0
58 1 1.4574921510009796e+01 1.9518261982125281e+01 5.6996542920674838e+00 0 0 0
59 2 1.8168375305451498e+01 1.9337717025734701e+01 4.1443323120627547e+00 0 0 0
60 3 1.8160307134276152e+01 1.9297076184921881e+01 7.2626284011464755e+00 0 0 0
61 1 1.7341201722591713e+01 2.0923610844691879e+01 5.7203479584034618e+00 0 0 0
62 2 2.0918142479248907e+01 2.0739888146503983e+01 4.1667980331573888e+00 0 0 0
63 3 2.0908835382863121e+01 2.0723793690695786e+01 7.2857060526286226e+00 0 0 0
64 1 2.0094991941500957e+01 2.2340602102342377e+01 5.7304752956653076e+00 0 0 0
65 2 2.3660615408040670e+01 2.2146996139992464e+01 4.1700616915614725e+00 0 0 0
66 3 2.3654774092136293e+01 2.2161769791123987e+01 7.2891482289433052e+00 0 0 0
67 1 2.2842614063256548e+01 2.3763521370621582e+01 5.7198868018881832e+00 0 0 0
68 2 2.6409582528760268e+01 2.3554769207588251e+01 4.1527252246126434e+00 0 0 0
69 3 2.6405891212176787e+01 2.3596700163375047e+01 7.2714155928198947e+00 0 0 0
70 1 2.5594053622893814e+01 2.5183346427224603e+01 5.6897365229760624e+00 0 0 0
71 2 2.9175853280684088e+01 2.4959651278415432e+01 4.1240273345697949e+00 0 0 0
72 3 2.9167591810411587e+01 2.5016577124567437e+01 7.2419942318668546e+00 0 0 0
73 1 1.3495341625136136e+01 8.5088318283200759e-01 5.6516896665972087e+00 0 1 0
74 2 1.7099856968628430e+01 6.1930660113472558e-01 4.1002112736928567e+00 0 1 0
75 3 1.7078584312273509e+01 6.7530522666972248e-01 7.2176125672356557e+00 0 1 0
76 1 1.6274539756394692e+01 2.2507605573069545e+00 5.6235591794603268e+00 0 1 0
77 2 1.9899682203107766e+01 2.0228254880990511e+00 4.0960258727889007e+00 0 1 0
78 3 1.9862309207197878e+01 2.0648551268330220e+00 7.2133223095352763e+00 0 1 0
79 2 3.3796485351988558e+01 9.1912371341221970e+00 4.1414666117094106e+00 -1 0 0
80 3 3.3842732490307021e+01 9.1890809498627384e+00 7.2597540359702259e+00 -1 0 0
81 1 3.3011736392070453e+01 1.0791595859468979e+01 5.7184480748388582e+00 -1 0 0
82 2 6.8487591322102830e+00 1.0623704014447316e+01 4.1002104114580318e+00 0 0 0
83 3 6.9078917711573533e+00 1.0614126312510077e+01 7.2176116911926353e+00 0 0 0
84 1 3.5792457162486002e+01 1.2220550966158649e+01 5.6856948484763397e+00 -1 0 0
85 2 9.6396883511050770e+00 1.2038599895323062e+01 4.0613384198095615e+00 0 0 0
86 3 9.6920732137333729e+00 1.2015295357641387e+01 7.1780952317344120e+00 0 0 0
87 1 8.8515675970056886e+00 1.3629516086037674e+01 5.6516900974417208e+00 0 0 0
88 2 1.2440164924147417e+01 1.3438492551717847e+01 4.0439460944866825e+00 0 0 0
89 3 1.2469932897226544e+01 1.3398543944553076e+01 7.1604745555011533e+00 0 0 0
90 1 1.1638008042678955e+01 1.5022667400222023e+01 5.6350632317495473e+00 0 0 0
91 2 1.5238850861623446e+01 1.4830341845627864e+01 4.0575453902461263e+00 0 0 0
92 3 1.5241283979004624e+01 1.4777821378602651e+01 7.1742151521287312e+00 0 0 0
93 1 1.4421641502767482e+01 1.6410286573326051e+01 5.6452699369924524e+00 0 0 0
94 2 1.8022973993406673e+01 1.6222175794710839e+01 4.0960272898990260e+00 0 0 0
95 3 1.8005260482788429e+01 1.6168795382680067e+01 7.2133237539099255e+00 0 0 0
96 1 1.7195485921304162e+01 1.7803668732078851e+01 5.6764266854243477e+00 0 0 0
97 2 2.0786433623349417e+01 1.7620606838437606e+01 4.1414693437554684e+00 0 0 0
98 3 2.0761443262265921e+01 1.7581635073604996e+01 7.2597568313600691e+00 0 0 0
99 1 1.9955462052899389e+01 1.9210178319382525e+01 5.7113023734426065e+00 0 0 0
100 2 2.3533863253080852e+01 1.9028191315639283e+01 4.1750179311567726e+00 0 0 0
101 3 2.3512390634790926e+01 1.9015215866808180e+01 7.2941340250636175e+00 0 0 0
102 1 2.2704029239028383e+01 2.0629634188186373e+01 5.7325528183449936e+00 0 0 0
103 2 2.6277601737297083e+01 2.0441954455609277e+01 4.1861118824259673e+00 0 0 0
104 3 2.6264092426659605e+01 2.0457752100357851e+01 7.3055022616789742e+00 0 0 0
105 1 2.5449681456325145e+01 2.2054690899191797e+01 5.7316895139170168e+00 0 0 0
106 2 2.9031044653273590e+01 2.1855872856998175e+01 4.1757784688636521e+00 0 0 0
107 3 2.9022786782656087e+01 2.1893725587946683e+01 7.2948970570226548e+00 0 0 0
108 1 2.8202688636570436e+01 2.3475699717792772e+01 5.7117397972783124e+00 0 0 0
109 2 3.1802589463240331e+01 2.3265969247142930e+01 4.1555066957294269e+00 0 0 0
110 3 3.1791591955671862e+01 2.3312554930358658e+01 7.2741198583017157e+00 0 0 0
111 1 3.0970060514346944e+01 2.4886860921656798e+01 5.6856951960742119e+00 0 0 0
112 2 3.4591510262439051e+01 2.4672956289726024e+01 4.1414675725925685e+00 0 0 0
113 3 3.4570253790295240e+01 2.4714084461617762e+01 7.2597550178144248e+00 0 0 0
114 1 1.8890217278903730e+01 5.4678570455620357e-01 5.6704267710098746e+00 0 1 0
115 2 2.2525118711243472e+01 3.3913343705366894e-01 4.1443316348243444e+00 0 1 0
116 3 2.2493955898115459e+01 3.6644077749951237e-01 7.2626277038693665e+00 0 1 0
117 1 2.1683038784267943e+01 1.9487045930299707e+00 5.6764258970151085e+00 0 1 0
118 2 2.5314993539492040e+01 1.7561052847276353e+00 4.1608468980585949e+00 0 1 0
119 3 2.5284628269960713e+01 1.7706044402896395e+00 7.2794430000619332e+00 0 1 0
120 2 3.0855915127425284e+01 4.6246060294123756e+00 4.1727274784650579e+00 -1 0 0
121 3 3.0868304022164789e+01 4.6351240067185548e+00 7.2916408148341345e+00 -1 0 0
122 2 3.8934901467869958e+00 6.0653767438942570e+00 4.1443298512360061e+00 0 0 0
123 3 3.9327215437697167e+00 6.0787104245664842e+00 7.2626258851229046e+00 0 0 0
124 1 3.2835362478257977e+01 7.6768090873843757e+00 5.7113001826541225e+00 -1 0 0
125 2 6.6643292728105248e+00 7.4972251585200995e+00 4.0960237809355942e+00 0 0 0
126 3 6.7194150673116848e+00 7.5085753074389006e+00 7.2133201795776802e+00 0 0 0
127 1 5.8907738526795494e+00 9.1094667238599136e+00 5.6704253902034747e+00 0 0 0
128 2 9.4502491423239139e+00 8.9139454323502711e+00 4.0442981524551556e+00 0 0 0
129 3 9.5028263576363070e+00 8.9153477106919841e+00 7.1607612129251237e+00 0 0 0
130 1 8.6742983925747534e+00 1.0522721682321228e+01 5.6235583967200693e+00 0 0 0
131 2 1.2250708145465916e+01 1.0316151415471728e+01 4.0102476291269653e+00 0 0 0
132 3 1.2282554718526303e+01 1.0300838507295923e+01 7.1263662468735376e+00 0 0 0
133 1 1.1461787583451768e+01 1.1917785782446581e+01 5.5913879579019214e+00 0 0 0
134 2 1.5057318796540866e+01 1.1709364748447538e+01 4.0096687131497495e+00 0 0 0
135 3 1.5058894152874425e+01 1.1675704097260434e+01 7.1257835595289585e+00 0 0 0
136 1 1.4250352225311316e+01 1.3302704493445610e+01 5.5896973178688700e+00 0 0 0
137 2 1.7856931156617946e+01 1.3101138525620462e+01 4.0443015050642286e+00 0 0 0
138 3 1.7831856484383604e+01 1.3054903284566656e+01 7.1607646072520055e+00 0 0 0
139 1 1.7033852012988039e+01 1.4688604940441722e+01 5.6204992190065131e+00 0 0 0
140 2 2.0638369219967558e+01 1.4499215954576702e+01 4.1002140093222836e+00 0 0 0
141 3 2.0600508632415043e+01 1.4452794582270336e+01 7.2176153582092724e+00 0 0 0
142 1 1.9805993692581257e+01 1.6085974164325044e+01 5.6704288971747543e+00 0 0 0
143 2 2.3399380270662306e+01 1.5908824998160222e+01 4.1555091458208882e+00 0 0 0
144 3 2.3364534904048302e+01 1.5876008993438855e+01 7.2741223649596094e+00 0 0 0
145 1 2.2564759638288166e+01 1.7500040915701170e+01 5.7184503749094073e+00 0 0 0
146 2 2.6147924278532294e+01 1.7329320556736199e+01 4.1919375996952386e+00 0 0 0
147 3 2.6126308995632293e+01 1.7318536720091579e+01 7.3113952528093158e+00 0 0 0
148 1 2.5314718518668151e+01 1.8927386179062633e+01 5.7474731854513452e+00 0 0 0
149 2 2.8897128027004054e+01 1.8754071463958532e+01 4.2023417819642681e+00 0 0 0
150 3 2.8890272647764483e+01 1.8764922415433773e+01 7.3220233724373491e+00 0 0 0
151 1 2.8065007334119137e+01 2.0357799678160802e+01 5.7515674388934919e+00 0 0 0
152 2 3.1658501900536699e+01 2.0175412841305551e+01 4.1919361784817406e+00 0 0 0
153 3 3.1659970097188769e+01 2.0199525326495511e+01 7.3113938008560124e+00 0 0 0
154 1 3.0824532543073285e+01 2.1781101322411992e+01 5.7369344202448662e+00 0 0 0
155 2 3.4436798560905110e+01 2.1589820184072927e+01 4.1750165967007176e+00 0 0 0
156 3 3.4436296763636804e+01 2.1614904347103618e+01 7.2941326593129974e+00 0 0 0
157 1 3.3597932960011605e+01 2.3193164100254805e+01 5.7184483800066763e+00 0 0 0
158 2 3.7227032357180406e+01 2.2999252256844947e+01 4.1667975007546794e+00 0 0 0
159 3 3.7217746482408039e+01 2.3015359906114210e+01 7.2857055007043634e+00 0 0 0
160 1 3.6383604813038438e+01 2.4597813168439352e+01 5.7113013032375619e+00 0 0 0
161 2 4.0016613398086065e+01 2.4409663927644370e+01 4.1727284124344051e+00 0 0 0
162 3 4.0001310640819753e+01 2.4415132946418847e+01 7.2916417624746339e+00 0 0 0
163 1 2.4312129340679959e+01 2.6254021401629979e-01 5.7203477978812796e+00 0 1 0
164 1 2.7100652111802471e+01 1.6821308837730216e+00 5.7356903100716572e+00 0 1 0
165 1 2.9882509432153135e+01 3.1159222850706190e+00 5.7399353572452618e+00 -1 0 0
166 2 3.7256854547755309e+00 2.9407879345692423e+00 4.1608449956553191e+00 0 0 0
167 3 3.7534258683761057e+00 2.9598359167564308e+00 7.2794410594674259e+00 0 0 0
168 1 2.9336533467293018e+00 4.5560766842878246e+00 5.7203461397046258e+00 0 0 0
169 2 6.4863704277387431e+00 4.3668414734672671e+00 4.1146667163313992e+00 0 0 0
170 3 6.5294132475905489e+00 4.3947667230857963e+00 7.2323324211788389e+00 0 0 0
171 1 5.7084602090975594e+00 5.9898533361389363e+00 5.6764235001962140e+00 0 0 0
172 2 9.2617548275114956e+00 5.7820196138738398e+00 4.0575423415196807e+00 0 0 0
173 3 9.3060214036560840e+00 5.8103874035123626e+00 7.1742120617479062e+00 0 0 0
174 1 8.4870016854108634e+00 7.4074050535325640e+00 5.6204956940798896e+00 0 0 0
175 2 1.2055367175229044e+01 7.1852961171362866e+00 4.0096667559638242e+00 0 0 0
176 3 1.2083728596868827e+01 7.2034907882754116e+00 7.1257815880923223e+00 0 0 0
177 1 1.1272011998178908e+01 8.8067495093855932e+00 5.5730802896531850e+00 0 0 0
178 2 1.4862329402265473e+01 8.5807416671927115e+00 3.9907709794984840e+00 0 0 0
179 3 1.4862328322874674e+01 8.5807409150676772e+00 7.1067644863179362e+00 0 0 0
180 1 1.4062315168194827e+01 1.0193417264705902e+01 5.5540962070061850e+00 0 0 0
181 2 1.7671048653453820e+01 9.9747671414224897e+00 4.0102496001096126e+00 0 0 0
182 3 1.7641863250423754e+01 9.9548418130686400e+00 7.1263682327719371e+00 0 0 0
183 1 1.6853215642961402e+01 1.1577042828481456e+01 5.5730828735639841e+00 0 0 0
184 2 2.0468241705954799e+01 1.1374752613866146e+01 4.0613416010198291e+00 0 0 0
185 3 2.0421866898871354e+01 1.1341037166905663e+01 7.1780984605848790e+00 0 0 0
186 1 1.9638147273309947e+01 1.2968743304610280e+01 5.6235620070880863e+00 0 0 0
187 2 2.3245976993077726e+01 1.2787163895891778e+01 4.1240305773341221e+00 0 0 0
188 3 2.3200808925184973e+01 1.2751546889619242e+01 7.2419975469866946e+00 0 0 0
189 1 2.2411911763038034e+01 1.4377388174660602e+01 5.6856982140655301e+00 0 0 0
190 2 2.6006331792481451e+01 1.4213646238353402e+01 4.1757805846315632e+00 0 0 0
191 3 2.5977680589674844e+01 1.4187569077913851e+01 7.2948992216069861e+00 0 0 0
192 1 2.5174342301422193e+01 1.5804238127678573e+01 5.7369365601171323e+00 0 0 0
193 2 2.8759529083372129e+01 1.5648572346403657e+01 4.2023423107250686e+00 0 0 0
194 3 2.8753561148518592e+01 1.5637210433465944e+01 7.3220239123516064e+00 0 0 0
195 1 2.7931081252811882e+01 1.7241053873083285e+01 5.7631089605573314e+00 0 0 0
196 2 3.1517770399891607e+01 1.7082157755465182e+01 4.2023415029172844e+00 0 0 0
197 3 3.1530595384511813e+01 1.7082670238758872e+01 7.3220230890752758e+00 0 0 0
198 1 3.0690481715510693e+01 1.8675287915442421e+01 5.7631081649438158e+00 0 0 0
199 2 3.4289283801272461e+01 1.8506791841309933e+01 4.1861112968965610e+00 0 0 0
200 3 3.4309718918876349e+01 1.8510593117630819e+01 7.3055016667582588e+00 0 0 0
201 1 3.3459070169449433e+01 2.0097957546147104e+01 5.7474719834131651e+00 0 0 0
202 2 3.7074386926013510e+01 1.9920647132596702e+01 4.1700616402621744e+00 0 0 0
203 3 3.7090100712609242e+01 1.9918319417521001e+01 7.2891481738715278e+00 0 0 0
204 1 3.6238605362025865e+01 2.1507756230815637e+01 5.7325521218418540e+00 0 0 0
205 1 3.9024865986352751e+01 2.2911764939382692e+01 5.7304754663678681e+00 0 0 0
206 1 5.5338607684147130e+00 2.8630812209912535e+00 5.6996518367682345e+00 0 0 0
207 1 8.3020864856670578e+00 4.2843237013027471e+00 5.6452669800494242e+00 0 0 0
208 2 1.1866475064847041e+01 4.0542106476383521e+00 4.0439444468796806e+00 0 0 0
209 3 1.1886186043699521e+01 4.0999651332368243e+00 7.1604728854593303e+00 0 0 0
210 1 1.1078976496850077e+01 5.6897730510271973e+00 5.5896949614623503e+00 0 0 0
211 2 1.4665230907822556e+01 5.4513066781936672e+00 4.0102475600742249e+00 0 0 0
212 3 1.4662566985718748e+01 5.4865429540387201e+00 7.1263661756852086e+00 0 0 0
213 1 1.3865717151864423e+01 7.0815713344702278e+00 5.5540954904492592e+00 0 0 0
214 2 1.7474301758633985e+01 6.8475643552592684e+00 4.0096686379626441e+00 0 0 0
215 3 1.7444362208234899e+01 6.8630283477651517e+00 7.1257834853926898e+00 0 0 0
216 1 1.6658954026301544e+01 8.4672355132576538e+00 5.5540968805152273e+00 0 0 0
217 2 2.0280346851946923e+01 8.2495224582332813e+00 4.0439477871988947e+00 0 0 0
218 3 2.0230865971631975e+01 8.2437151334709906e+00 7.1604762731678973e+00 0 0 0
219 1 1.9452564501300458e+01 9.8571745484495974e+00 5.5913903996815115e+00 0 0 0
220 2 2.3071968541731458e+01 9.6638621309624053e+00 4.0990778860923092e+00 0 0 0
221 3 2.3020698480063729e+01 9.6434851002199959e+00 7.2165986539945672e+00 0 0 0
222 1 2.2240075765557084e+01 1.1261826957145075e+01 5.6516932817582664e+00 0 0 0
223 2 2.5845775584056067e+01 1.1093945501688767e+01 4.1527278000593650e+00 0 0 0
224 3 2.5811309495251237e+01 1.1069783687548414e+01 7.2714182273722656e+00 0 0 0
225 1 2.5017699334560724e+01 1.2686355646536963e+01 5.7117426273828489e+00 0 0 0
226 2 2.8607542445680203e+01 1.2536054905416997e+01 4.1861126596564366e+00 0 0 0
227 3 2.8600617934677420e+01 1.2516457153399223e+01 7.3055030543664232e+00 0 0 0
228 1 2.7786720636477007e+01 1.4126070925564818e+01 5.7515686556755528e+00 0 0 0
229 2 3.1368001624910832e+01 1.3980067943438796e+01 4.1919365621688405e+00 0 0 0
230 3 3.1388150146911467e+01 1.3966740600591686e+01 7.3113941912482714e+00 0 0 0
231 1 3.0552865062014810e+01 1.5568460401574178e+01 5.7631084922513738e+00 0 0 0
232 2 3.4137051792747691e+01 1.5415281907074629e+01 4.1757783963660788e+00 0 0 0
233 3 3.4173961971639820e+01 1.5403507347556461e+01 7.2948969879715637e+00 0 0 0
234 1 3.3322700294972641e+01 1.7000931258709169e+01 5.7515671007924158e+00 0 0 0
235 1 3.6099914447633687e+01 1.8417423541002716e+01 5.7316893725797629e+00 0 0 0
236 1 1.3672633783441608e+01 3.9672645260886612e+00 5.5913873161341732e+00 0 0 0
237 2 1.7279806526982721e+01 3.7271417302590102e+00 4.0442996157002726e+00 0 0 0
238 3 1.7252302054212290e+01 3.7719732553970577e+00 7.1607626936244992e+00 0 0 0
239 1 1.6461758477901597e+01 5.3584321309261700e+00 5.5730814466955234e+00 0 0 0
240 2 2.0086380809822721e+01 5.1298643763222618e+00 4.0575452683702613e+00 0 0 0
241 3 2.0039679502019489e+01 5.1540157769181727e+00 7.1742150326930849e+00 0 0 0
242 1 1.9257657223787881e+01 6.7497472417191915e+00 5.5896978540002520e+00 0 0 0
243 2 2.2885480117253714e+01 6.5436558963069977e+00 4.0954139222830381e+00 0 0 0
244 3 2.2833513605927788e+01 6.5476797464791181e+00 7.2128121497887916e+00 0 0 0
245 1 2.2053360645256298e+01 8.1521228134725323e+00 5.6350651672675216e+00 0 0 0
246 2 2.5669388036347829e+01 7.9731915956879416e+00 4.1396341941362840e+00 0 0 0
247 3 2.5631257935291476e+01 7.9646365602298150e+00 7.2580365148929697e+00 0 0 0
248 1 2.4843151771919093e+01 9.5733880572782422e+00 5.6897396966818841e+00 0 0 0
249 2 2.8439426142374433e+01 9.4171575207896279e+00 4.1700626662831732e+00 0 0 0
250 3 2.8429554594425976e+01 9.4047123373472914e+00 7.2891492220402938e+00 0 0 0
251 1 2.7624832851418866e+01 1.1012686823057134e+01 5.7316910515249457e+00 0 0 0
252 2 3.1203766501495473e+01 1.0866789449192101e+01 4.1750168583660381e+00 0 0 0
253 3 3.1225741946239332e+01 1.0854681631698222e+01 7.2941329234203360e+00 0 0 0
254 1 3.0400639716148881e+01 1.2459457996521223e+01 5.7474727095447147e+00 0 0 0
255 1 3.3175553689222582e+01 1.3899461997761831e+01 5.7369344676384877e+00 0 0 0
256 1 1.9066131869410317e+01 3.6462154204176951e+00 5.6204979910998487e+00 0 0 0
257 2 2.2699652899353239e+01 3.4339011544076006e+00 4.1146695687480950e+00 0 0 0
258 3 2.2653947786628652e+01 3.4572138512738353e+00 7.2323353296447070e+00 0 0 0
259 1 2.1863257326020793e+01 5.0476156728401724e+00 5.6452702761821962e+00 0 0 0
260 2 2.5488449768960955e+01 4.8583691317810178e+00 4.1445469817663207e+00 0 0 0
261 3 2.5450826181628287e+01 4.8669262276579790e+00 7.2629016660626089e+00 0 0 0
262 1 2.4658819753204170e+01 6.4647660265430344e+00 5.6852644280314841e+00 0 0 0
263 2 2.8263143670006084e+01 6.2975948546788247e+00 4.1667846932388946e+00 0 0 0
264 3 2.8249800574260295e+01 6.2992013288891275e+00 7.2857008079200787e+00 0 0 0
265 1 2.7448476157994470e+01 7.9004848693546430e+00 5.7198884972228043e+00 0 0 0
266 2 3.1029253733098138e+01 7.7456602711756624e+00 4.1667970863975992e+00 0 0 0
267 3 3.1047847567433418e+01 7.7456477037135851e+00 7.2857050793995608e+00 0 0 0
268 1 3.0231794283069419e+01 9.3474107959984725e+00 5.7325524436756981e+00 0 0 0
269 1 2.4478202409462906e+01 3.3608840154880912e+00 5.6996544369460880e+00 0 0 0
270 2 2.8091157172510229e+01 3.1853241073590355e+00 4.1757710986703245e+00 0 0 0
271 3 2.8076854644527806e+01 3.1943691848574973e+00 7.2947103528289485e+00 0 0 0
272 1 2.7269438255187186e+01 4.7898510364939968e+00 5.7236419829691334e+00 0 0 0
273 1 3.0054571251092202e+01 6.2324340108015734e+00 5.7304750776968971e+00 0 0 0
274 5 2.8748283727996522e+01 1.5184079041114178e+00 1.0376130875878149e+01 -1 1 0
275 6 2.8754949440005884e+01 1.5105529787522731e+00 1.3495185956917119e+01 -1 1 0
276 5 4.1144798131669333e+01 2.2434553811592956e+01 1.0387413185891933e+01 -1 0 0
277 6 4.1147713206409648e+01 2.2450540805625462e+01 1.3506326537239255e+01 -1 0 0
278 4 4.1967568488025258e+01 2.4047877064979414e+01 1.1939119007083162e+01 -1 0 0
279 5 1.4035511032642679e+01 2.4137519067796262e+01 1.0376130632666150e+01 0 0 0
280 6 1.4038980194662257e+01 2.4147219283554659e+01 1.3495185717086807e+01 0 0 0
281 4 4.4587285844907179e+01 2.5742466950591783e+01 1.1932120739837027e+01 -1 0 0
282 5 1.8031731280595531e+00 8.6328002545072738e-02 1.0376131290070056e+01 0 1 0
283 6 1.7930368529831462e+00 8.4481851913948663e-02 1.3495186362925098e+01 0 1 0
284 4 2.6239986706192209e+00 1.6821394015317890e+00 1.1943365909946081e+01 0 1 0
285 5 4.4400231006541340e+00 1.7706136224910005e+00 1.0399613843626177e+01 0 1 0
286 6 4.4096569159913503e+00 1.7561137700324057e+00 1.3518209908103119e+01 0 1 0
287 5 3.6085078046637229e+01 1.5876017934211747e+01 1.0404934913569912e+01 -1 0 0
288 6 3.6050232475457918e+01 1.5908834802557564e+01 1.3523548079721092e+01 -1 0 0
289 4 3.6884853125369183e+01 1.7500050486647268e+01 1.1960606437712247e+01 -1 0 0
290 5 3.8688169193617576e+01 1.7581644869738682e+01 1.0419299770111959e+01 -1 0 0
291 6 3.8663179412472104e+01 1.7620617487333170e+01 1.3537587218982805e+01 -1 0 0
292 4 3.9494150853694741e+01 1.9210188502271848e+01 1.1967753548984030e+01 -1 0 0
293 5 1.1564342510190393e+01 1.9297086380263387e+01 1.0416427135725430e+01 0 0 0
294 6 1.1556275063605790e+01 1.9337727730130474e+01 1.3534723208031593e+01 0 0 0
295 4 1.2383448724395212e+01 2.0923620992108880e+01 1.1958707107886209e+01 0 0 0
296 5 1.4175720120398728e+01 2.1011797653223489e+01 1.0399611899741730e+01 0 0 0
297 6 1.4178346106292071e+01 2.1045344248900079e+01 1.3518208003931267e+01 0 0 0
298 4 1.5007111700122545e+01 2.2628757171556451e+01 1.1943364639067912e+01 0 0 0
299 5 1.6804849748069017e+01 2.2718054179714585e+01 1.0384344586316123e+01 0 0 0
300 6 1.6804167741819896e+01 2.2734963045427168e+01 1.3503283841252475e+01 0 0 0
301 4 1.7639740135258677e+01 2.4321020533926564e+01 1.1939119600472312e+01 0 0 0
302 5 1.9448304702360709e+01 2.4415142766793458e+01 1.0387414123631210e+01 0 0 0
303 6 1.9433001432448325e+01 2.4409672690682566e+01 1.3506327460036486e+01 0 0 0
304 4 5.4125218801865955e+00 2.6254940088170159e-01 1.1958708783221116e+01 0 1 0
305 5 7.2306954625735145e+00 3.6645088439420731e-01 1.0416429013620702e+01 0 1 0
306 6 7.1995324786681145e+00 3.3914242059239363e-01 1.3534725047628044e+01 0 1 0
307 4 8.0416123104209625e+00 1.9487142673208455e+00 1.2002631358212174e+01 0 1 0
308 5 9.8623415404843051e+00 2.0648657800040255e+00 1.0465734662729110e+01 0 1 0
309 6 9.8249691321744752e+00 2.0228352659685429e+00 1.3583031061513054e+01 0 1 0
310 5 3.3638304479361253e+01 1.1069791628083530e+01 1.0407639176999398e+01 -1 0 0
311 6 3.3603836973640320e+01 1.1093953871077407e+01 1.3526329548170333e+01 -1 0 0
312 4 3.4431913830225923e+01 1.2686364045683758e+01 1.1967314961156829e+01 -1 0 0
313 5 3.6248804349582045e+01 1.2751555990961638e+01 1.0437060464572784e+01 -1 0 0
314 6 3.6203635934686574e+01 1.2787173511985873e+01 1.3555027365976613e+01 -1 0 0
315 4 3.7037701257270619e+01 1.4377397742743668e+01 1.1993359521296176e+01 -1 0 0
316 5 9.1241410129134906e+00 1.4452804781350444e+01 1.0461442115783944e+01 0 0 0
317 6 9.0862811407513142e+00 1.4499226677590732e+01 1.3578843413585485e+01 0 0 0
318 4 9.9186563812963069e+00 1.6085984663730947e+01 1.2008627963604550e+01 0 0 0
319 5 1.1719389028930850e+01 1.6168806267417480e+01 1.0465732418518007e+01 0 0 0
320 6 1.1701676779760090e+01 1.6222186959223073e+01 1.3583028859341143e+01 0 0 0
321 4 1.2529164534465110e+01 1.7803679546817914e+01 1.2002628899670272e+01 0 0 0
322 5 1.4321026388765761e+01 1.7890256781815637e+01 1.0446719478343912e+01 0 0 0
323 6 1.4323689518236996e+01 1.7941494838923354e+01 1.3564385242626049e+01 0 0 0
324 4 1.5149729626114175e+01 1.9518272498838066e+01 1.1979400437054013e+01 0 0 0
325 5 1.6940312344001036e+01 1.9607568272103546e+01 1.0416153223367205e+01 0 0 0
326 6 1.6951713432060345e+01 1.9644429757315226e+01 1.3534507909449045e+01 0 0 0
327 4 1.7782869308061883e+01 2.1221070095094433e+01 1.1955412951431841e+01 0 0 0
328 5 1.9580186174859204e+01 2.1315413583425677e+01 1.0393354134733306e+01 0 0 0
329 6 1.9585466445851651e+01 2.1327772282870512e+01 1.3512270249522846e+01 0 0 0
330 4 2.0424749318757780e+01 2.2911774494952382e+01 1.1948579878952104e+01 0 0 0
331 5 2.2231868979415786e+01 2.3015370114056026e+01 1.0393349875075337e+01 0 0 0
332 6 2.2222582933910523e+01 2.2999261145521160e+01 1.3512257867432259e+01 0 0 0
333 4 2.3066010446256477e+01 2.4597822768098396e+01 1.1967754757077010e+01 0 0 0
334 5 2.4879361304728945e+01 2.4714094791324229e+01 1.0419300898044771e+01 0 0 0
335 6 2.4858105038382924e+01 2.4672965581705746e+01 1.3537588321559014e+01 0 0 0
336 4 1.0834433546822099e+01 5.4679576296604793e-01 1.2008629512847126e+01 0 1 0
337 5 1.2646065945281016e+01 6.7531585798713267e-01 1.0461443215369243e+01 0 1 0
338 6 1.2624794135394826e+01 6.1931672878087918e-01 1.3578844494159439e+01 0 1 0
339 4 1.3450110522577056e+01 2.2507712241653923e+00 1.2055496479482281e+01 0 1 0
340 5 1.5251604680291175e+01 2.3859031787819096e+00 1.0500959667278879e+01 0 1 0
341 6 1.5245594516813449e+01 2.3288843682345353e+00 1.3617716478020636e+01 0 1 0
342 5 3.1199813686694256e+01 6.2992088200831331e+00 1.0393355185444106e+01 -1 0 0
343 6 3.1186468660145923e+01 6.2976025614908675e+00 1.3512271279708960e+01 -1 0 0
344 4 3.2001137268902760e+01 7.9004924921449371e+00 1.1959168065095104e+01 -1 0 0
345 5 3.3818356208585904e+01 7.9646447407627141e+00 1.0421021061071150e+01 -1 0 0
346 6 3.3780224694341790e+01 7.9731998872869472e+00 1.3539423323672436e+01 -1 0 0
347 4 3.4606461639226964e+01 9.5733964682961403e+00 1.1989318224572990e+01 -1 0 0
348 5 6.7039520852529755e+00 9.6434944552366080e+00 1.0462459703922415e+01 0 0 0
349 6 6.6526816540950948e+00 9.6638715928429590e+00 1.3579980400646619e+01 0 0 0
350 4 7.4845745410817521e+00 1.1261836568440762e+01 1.2027364999820941e+01 0 0 0
351 5 9.3027829772097537e+00 1.1341047705415743e+01 1.0500959504289149e+01 0 0 0
352 6 9.2564089911816332e+00 1.1374763295072011e+01 1.3617716312741400e+01 0 0 0
353 4 1.0086503008659623e+01 1.2968754014196016e+01 1.2055495472318860e+01 0 0 0
354 5 1.1892793002267465e+01 1.3054914640513518e+01 1.0518291958551563e+01 0 0 0
355 6 1.1867719976185647e+01 1.3101149933919784e+01 1.3634755039209068e+01 0 0 0
356 4 1.2690798461382215e+01 1.4688616224599647e+01 1.2058556711887432e+01 0 0 0
357 5 1.4483365715172621e+01 1.4777833024697186e+01 1.0504839697128309e+01 0 0 0
358 6 1.4485800579802397e+01 1.4830353189970014e+01 1.3621509464436151e+01 0 0 0
359 4 1.5303009445519763e+01 1.6410297760476269e+01 1.2033784518593036e+01 0 0 0
360 5 1.7087231214051918e+01 1.6500532304534381e+01 1.0466242681983930e+01 0 0 0
361 6 1.7109729637631482e+01 1.6547548504223183e+01 1.3583640912059961e+01 0 0 0
362 4 1.7928078902458999e+01 1.8122750624803153e+01 1.1993790462666929e+01 0 0 0
363 5 1.9713224006851167e+01 1.8214971511843228e+01 1.0421018406666107e+01 0 0 0
364 6 1.9739697873150561e+01 1.8243715611943681e+01 1.3539420728432427e+01 0 0 0
365 4 2.0566276127542199e+01 1.9820804483236973e+01 1.1959166461559395e+01 0 0 0