LAMMPS data file via write_data, version 30 Mar 2018, timestep = 984

546 atoms
6 atom types

0.0000000000000000e+00 2.9724962999999999e+01 xlo xhi
0.0000000000000000e+00 2.5742573000000000e+01 ylo yhi
0.0000000000000000e+00 1.0000000000000000e+02 zlo zhi
1.4862482000000000e+01 0.0000000000000000e+00 0.0000000000000000e+00 xy xz yz

Masses

1 95.94
2 32.066
3 32.066
4 95.94
5 32.066
6 32.066

Atoms # atomic

1 2 2.7931613074076662e+01 8.4473301931966380e-02 4.1838692581983778e+00 -1 1 0
2 3 2.7921477823861167e+01 8.6319067703340954e-02 7.3029243419760634e+00 -1 1 0
3 2 9.6969969593113559e-01 1.5105444533976311e+00 4.1838685991638691e+00 0 1 0
4 3 9.7636667034142866e-01 1.5183996824750208e+00 7.3029236717816888e+00 0 1 0
5 2 3.9864148571365206e+01 2.1327763137506366e+01 4.1667844251664157e+00 -1 0 0
6 3 3.9869428908603595e+01 2.1315403183022649e+01 7.2857005256959706e+00 -1 0 0
7 2 4.2645446565080995e+01 2.2734953830546218e+01 4.1757712464276038e+00 -1 0 0
8 3 4.2644764863764969e+01 2.2718044284010052e+01 7.2947104966545284e+00 -1 0 0
9 1 4.1809874778169501e+01 2.4321011318246079e+01 5.7399359894541009e+00 -1 0 0
10 2 1.5685670217609538e+01 2.4147210033596085e+01 4.1838690552798061e+00 0 0 0
11 3 1.5689139936137222e+01 2.4137509940129114e+01 7.3029241367738713e+00 0 0 0
12 1 4.4587291386299682e+01 2.5742458142574986e+01 5.7469342570962239e+00 -1 0 0
13 2 1.8437824509372160e+01 2.5564522732254709e+01 4.1757701318559670e+00 0 0 0
14 3 1.8452809949461251e+01 2.5572387939850710e+01 7.2947093663353151e+00 0 0 0
15 1 2.7687926414349491e+00 1.4313497459364164e+00 5.7356890397793174e+00 0 1 0
16 2 6.3255962304579372e+00 1.2394382016882766e+00 4.1445444698436251e+00 0 1 0
17 3 6.3518196461442935e+00 1.2677436100644588e+00 7.2628991000831187e+00 0 1 0
18 2 9.0865833301107877e+00 2.6510325677933881e+00 4.0954104477885078e+00 0 1 0
19 3 9.1160518798076904e+00 2.6940250904253080e+00 7.2128086071996336e+00 0 1 0
20 2 3.6919070793748190e+01 1.6836085789281224e+01 4.1527255078123355e+00 -1 0 0
21 3 3.6957228783309922e+01 1.6818317167005166e+01 7.2714158874377794e+00 -1 0 0
22 2 3.9709917049560531e+01 1.8243706035539493e+01 4.1396326917809443e+00 -1 0 0
23 3 3.9736390559022126e+01 1.8214960719549033e+01 7.2580349741231469e+00 -1 0 0
24 1 3.8883338970798107e+01 1.9820794600294011e+01 5.7198874921591161e+00 -1 0 0
25 2 1.2772938155111500e+01 1.9644419825858989e+01 4.1445464801216794e+00 0 0 0
26 3 1.2784338768797111e+01 1.9607557488600250e+01 7.2629011438432478e+00 0 0 0
27 1 4.1666745558559818e+01 2.1221060143583472e+01 5.7236417636373700e+00 -1 0 0
28 2 1.5546304677690628e+01 2.1045334197048561e+01 4.1608468927725291e+00 0 0 0
29 3 1.5548930393665238e+01 2.1011787514824004e+01 7.2794429944018022e+00 0 0 0
30 1 1.4717539525222236e+01 2.2628747503285759e+01 5.7356902891325179e+00 0 0 0
31 2 1.8301899832797293e+01 2.2450530700903794e+01 4.1727281990121785e+00 0 0 0
32 3 1.8304814791589301e+01 2.2434544390597708e+01 7.2916415537141761e+00 0 0 0
33 1 1.7482044997875224e+01 2.4047867648407550e+01 5.7399354325444145e+00 0 0 0
34 2 2.1047136320120856e+01 2.3859442610358997e+01 4.1667836336481026e+00 0 0 0
35 3 2.1055199979578109e+01 2.3870196682408530e+01 7.2856997274874855e+00 0 0 0
36 1 2.0238245536778983e+01 2.5473889670875742e+01 5.7236403589116405e+00 0 0 0
37 2 2.3795124219737090e+01 2.5267902526972218e+01 4.1396314678008945e+00 0 0 0
38 3 2.3806781095722499e+01 2.5305203036803075e+01 7.2580337280754543e+00 0 0 0
39 1 8.1315923259403426e+00 1.1547208601520915e+00 5.6852613190649359e+00 0 1 0
40 2 1.1695516895723767e+01 9.2942530439516524e-01 4.0990742845915484e+00 0 1 0
41 3 1.1703505054762525e+01 9.8401543235357358e-01 7.2165949780154977e+00 0 1 0
42 1 1.0895616654911159e+01 2.5674355676445875e+00 5.6350614556278824e+00 0 1 0
43 2 1.4479056298442696e+01 2.3288734345842652e+00 4.0613383217003056e+00 0 1 0
44 3 1.4473044741354162e+01 2.3858923139719934e+00 7.1780951271463476e+00 0 1 0
45 2 3.3972459074144766e+01 1.2310006345776827e+01 4.1555064937395771e+00 -1 0 0
46 3 3.4018302590696067e+01 1.2296237260269004e+01 7.2741196528374870e+00 -1 0 0
47 2 3.6752599381193427e+01 1.3737984818685698e+01 4.1240273910288119e+00 -1 0 0
48 3 3.6806028883569340e+01 1.3716676012532108e+01 7.2419942962436856e+00 -1 0 0
49 1 3.5954041023482020e+01 1.5322745399282191e+01 5.7117398879753853e+00 -1 0 0
50 2 9.8194999291891492e+00 1.5148939070539715e+01 4.0990753500774986e+00 0 0 0
51 3 9.8627812145778986e+00 1.5114725492233140e+01 7.2165960676519720e+00 0 0 0
52 1 3.8737224106031015e+01 1.6728065643038363e+01 5.6897374250168378e+00 -1 0 0
53 2 1.2614922047830182e+01 1.6547537919891006e+01 4.0954127567014824e+00 0 0 0
54 3 1.2637419298970968e+01 1.6500520900400073e+01 7.2128109546249934e+00 0 0 0
55 1 1.1796572686482463e+01 1.8122740033518816e+01 5.6852632884596499e+00 0 0 0
56 2 1.5400961642817439e+01 1.7941484046930753e+01 4.1146696725707219e+00 0 0 0
57 3 1.5403623684725256e+01 1.7890245740901001e+01 7.2323354317975364e+00 0 0 0
58 1 1.4574921510009800e+01 1.9518261982125281e+01 5.6996542920674829e+00 0 0 0
59 2 1.8168375305451502e+01 1.9337717025734701e+01 4.1443323120627547e+00 0 0 0
60 3 1.8160307134276152e+01 1.9297076184921881e+01 7.2626284011464755e+00 0 0 0
61 1 1.7341201722591716e+01 2.0923610844691876e+01 5.7203479584034600e+00 0 0 0
62 2 2.0918142479248914e+01 2.0739888146503983e+01 4.1667980331573888e+00 0 0 0
63 3 2.0908835382863128e+01 2.0723793690695786e+01 7.2857060526286226e+00 0 0 0
64 1 2.0094991941500961e+01 2.2340602102342373e+01 5.7304752956653093e+00 0 0 0
65 2 2.3660615408040670e+01 2.2146996139992467e+01 4.1700616915614708e+00 0 0 0
66 3 2.3654774092136293e+01 2.2161769791123984e+01 7.2891482289433043e+00 0 0 0
67 1 2.2842614063256548e+01 2.3763521370621582e+01 5.7198868018881823e+00 0 0 0
68 2 2.6409582528760268e+01 2.3554769207588251e+01 4.1527252246126443e+00 0 0 0
69 3 2.6405891212176787e+01 2.3596700163375047e+01 7.2714155928198947e+00 0 0 0
70 1 2.5594053622893817e+01 2.5183346427224603e+01 5.6897365229760624e+00 0 0 0
71 2 2.9175853280684080e+01 2.4959651278415432e+01 4.1240273345697949e+00 0 0 0
72 3 2.9167591810411583e+01 2.5016577124567426e+01 7.2419942318668582e+00 0 0 0
73 1 1.3495341625136138e+01 8.5088318283200737e-01 5.6516896665972105e+00 0 1 0
74 2 1.7099856968628430e+01 6.1930660113472558e-01 4.1002112736928558e+00 0 1 0
75 3 1.7078584312273509e+01 6.7530522666972403e-01 7.2176125672356566e+00 0 1 0
76 1 1.6274539756394695e+01 2.2507605573069549e+00 5.6235591794603277e+00 0 1 0
77 2 1.9899682203107769e+01 2.0228254880990515e+00 4.0960258727888998e+00 0 1 0
78 3 1.9862309207197882e+01 2.0648551268330229e+00 7.2133223095352754e+00 0 1 0
79 2 3.3796485351988572e+01 9.1912371341221935e+00 4.1414666117094106e+00 -1 0 0
80 3 3.3842732490307021e+01 9.1890809498627384e+00 7.2597540359702259e+00 -1 0 0
81 1 3.3011736392070475e+01 1.0791595859468980e+01 5.7184480748388573e+00 -1 0 0
82 2 6.8487591322102856e+00 1.0623704014447316e+01 4.1002104114580318e+00 0 0 0
83 3 6.9078917711573578e+00 1.0614126312510079e+01 7.2176116911926336e+00 0 0 0
84 1 3.5792457162486002e+01 1.2220550966158649e+01 5.6856948484763397e+00 -1 0 0
85 2 9.6396883511050842e+00 1.2038599895323062e+01 4.0613384198095588e+00 0 0 0
86 3 9.6920732137333765e+00 1.2015295357641387e+01 7.1780952317344093e+00 0 0 0
87 1 8.8515675970056922e+00 1.3629516086037674e+01 5.6516900974417181e+00 0 0 0
88 2 1.2440164924147421e+01 1.3438492551717843e+01 4.0439460944866816e+00 0 0 0
89 3 1.2469932897226551e+01 1.3398543944553079e+01 7.1604745555011524e+00 0 0 0
90 1 1.1638008042678956e+01 1.5022667400222023e+01 5.6350632317495464e+00 0 0 0
91 2 1.5238850861623451e+01 1.4830341845627860e+01 4.0575453902461254e+00 0 0 0
92 3 1.5241283979004624e+01 1.4777821378602649e+01 7.1742151521287312e+00 0 0 0
93 1 1.4421641502767486e+01 1.6410286573326047e+01 5.6452699369924506e+00 0 0 0
94 2 1.8022973993406680e+01 1.6222175794710839e+01 4.0960272898990251e+00 0 0 0
95 3 1.8005260482788437e+01 1.6168795382680067e+01 7.2133237539099255e+00 0 0 0
96 1 1.7195485921304165e+01 1.7803668732078851e+01 5.6764266854243468e+00 0 0 0
97 2 2.0786433623349424e+01 1.7620606838437602e+01 4.1414693437554684e+00 0 0 0
98 3 2.0761443262265928e+01 1.7581635073604993e+01 7.2597568313600700e+00 0 0 0
99 1 1.9955462052899392e+01 1.9210178319382525e+01 5.7113023734426065e+00 0 0 0
100 2 2.3533863253080856e+01 1.9028191315639283e+01 4.1750179311567726e+00 0 0 0
101 3 2.3512390634790933e+01 1.9015215866808180e+01 7.2941340250636175e+00 0 0 0
102 1 2.2704029239028387e+01 2.0629634188186373e+01 5.7325528183449919e+00 0 0 0
103 2 2.6277601737297090e+01 2.0441954455609277e+01 4.1861118824259664e+00 0 0 0
104 3 2.6264092426659605e+01 2.0457752100357840e+01 7.3055022616789760e+00 0 0 0
105 1 2.5449681456325145e+01 2.2054690899191794e+01 5.7316895139170168e+00 0 0 0
106 2 2.9031044653273593e+01 2.1855872856998175e+01 4.1757784688636521e+00 0 0 0
107 3 2.9022786782656087e+01 2.1893725587946683e+01 7.2948970570226548e+00 0 0 0
108 1 2.8202688636570436e+01 2.3475699717792772e+01 5.7117397972783124e+00 0 0 0
109 2 3.1802589463240331e+01 2.3265969247142941e+01 4.1555066957294287e+00 0 0 0
110 3 3.1791591955671869e+01 2.3312554930358665e+01 7.2741198583017157e+00 0 0 0
111 1 3.0970060514346944e+01 2.4886860921656798e+01 5.6856951960742128e+00 0 0 0
112 2 3.4591510262439051e+01 2.4672956289726027e+01 4.1414675725925658e+00 0 0 0
113 3 3.4570253790295240e+01 2.4714084461617766e+01 7.2597550178144248e+00 0 0 0
114 1 1.8890217278903727e+01 5.4678570455620512e-01 5.6704267710098737e+00 0 1 0
115 2 2.2525118711243476e+01 3.3913343705367044e-01 4.1443316348243409e+00 0 1 0
116 3 2.2493955898115463e+01 3.6644077749951237e-01 7.2626277038693638e+00 0 1 0
117 1 2.1683038784267946e+01 1.9487045930299713e+00 5.6764258970151076e+00 0 1 0
118 2 2.5314993539492043e+01 1.7561052847276377e+00 4.1608468980585904e+00 0 1 0
119 3 2.5284628269960713e+01 1.7706044402896388e+00 7.2794430000619279e+00 0 1 0
120 2 3.0855915127425291e+01 4.6246060294123765e+00 4.1727274784650570e+00 -1 0 0
121 3 3.0868304022164786e+01 4.6351240067185548e+00 7.2916408148341327e+00 -1 0 0
122 2 3.8934901467869989e+00 6.0653767438942596e+00 4.1443298512360061e+00 0 0 0
123 3 3.9327215437697189e+00 6.0787104245664851e+00 7.2626258851229020e+00 0 0 0
124 1 3.2835362478257977e+01 7.6768090873843775e+00 5.7113001826541225e+00 -1 0 0
125 2 6.6643292728105266e+00 7.4972251585200995e+00 4.0960237809355933e+00 0 0 0
126 3 6.7194150673116866e+00 7.5085753074389014e+00 7.2133201795776802e+00 0 0 0
127 1 5.8907738526795530e+00 9.1094667238599119e+00 5.6704253902034747e+00 0 0 0
128 2 9.4502491423239192e+00 8.9139454323502747e+00 4.0442981524551529e+00 0 0 0
129 3 9.5028263576363088e+00 8.9153477106919841e+00 7.1607612129251237e+00 0 0 0
130 1 8.6742983925747570e+00 1.0522721682321228e+01 5.6235583967200666e+00 0 0 0
131 2 1.2250708145465921e+01 1.0316151415471728e+01 4.0102476291269653e+00 0 0 0
132 3 1.2282554718526306e+01 1.0300838507295923e+01 7.1263662468735376e+00 0 0 0
133 1 1.1461787583451773e+01 1.1917785782446581e+01 5.5913879579019206e+00 0 0 0
134 2 1.5057318796540869e+01 1.1709364748447534e+01 4.0096687131497495e+00 0 0 0
135 3 1.5058894152874432e+01 1.1675704097260434e+01 7.1257835595289585e+00 0 0 0
136 1 1.4250352225311321e+01 1.3302704493445608e+01 5.5896973178688691e+00 0 0 0
137 2 1.7856931156617957e+01 1.3101138525620463e+01 4.0443015050642286e+00 0 0 0
138 3 1.7831856484383611e+01 1.3054903284566661e+01 7.1607646072520046e+00 0 0 0
139 1 1.7033852012988042e+01 1.4688604940441722e+01 5.6204992190065139e+00 0 0 0
140 2 2.0638369219967561e+01 1.4499215954576698e+01 4.1002140093222845e+00 0 0 0
141 3 2.0600508632415050e+01 1.4452794582270339e+01 7.2176153582092724e+00 0 0 0
142 1 1.9805993692581261e+01 1.6085974164325044e+01 5.6704288971747543e+00 0 0 0
143 2 2.3399380270662306e+01 1.5908824998160222e+01 4.1555091458208882e+00 0 0 0
144 3 2.3364534904048305e+01 1.5876008993438859e+01 7.2741223649596103e+00 0 0 0
145 1 2.2564759638288173e+01 1.7500040915701174e+01 5.7184503749094082e+00 0 0 0
146 2 2.6147924278532294e+01 1.7329320556736199e+01 4.1919375996952395e+00 0 0 0
147 3 2.6126308995632293e+01 1.7318536720091579e+01 7.3113952528093176e+00 0 0 0
148 1 2.5314718518668151e+01 1.8927386179062633e+01 5.7474731854513470e+00 0 0 0
149 2 2.8897128027004054e+01 1.8754071463958532e+01 4.2023417819642690e+00 0 0 0
150 3 2.8890272647764490e+01 1.8764922415433773e+01 7.3220233724373491e+00 0 0 0
151 1 2.8065007334119144e+01 2.0357799678160802e+01 5.7515674388934919e+00 0 0 0
152 2 3.1658501900536706e+01 2.0175412841305551e+01 4.1919361784817406e+00 0 0 0
153 3 3.1659970097188769e+01 2.0199525326495511e+01 7.3113938008560169e+00 0 0 0
154 1 3.0824532543073293e+01 2.1781101322411992e+01 5.7369344202448662e+00 0 0 0
155 2 3.4436798560905103e+01 2.1589820184072934e+01 4.1750165967007149e+00 0 0 0
156 3 3.4436296763636804e+01 2.1614904347103625e+01 7.2941326593129991e+00 0 0 0
157 1 3.3597932960011619e+01 2.3193164100254812e+01 5.7184483800066745e+00 0 0 0
158 2 3.7227032357180406e+01 2.2999252256844951e+01 4.1667975007546758e+00 0 0 0
159 3 3.7217746482408032e+01 2.3015359906114210e+01 7.2857055007043590e+00 0 0 0
160 1 3.6383604813038438e+01 2.4597813168439359e+01 5.7113013032375601e+00 0 0 0
161 2 4.0016613398086072e+01 2.4409663927644370e+01 4.1727284124344033e+00 0 0 0
162 3 4.0001310640819753e+01 2.4415132946418851e+01 7.2916417624746295e+00 0 0 0
163 1 2.4312129340679963e+01 2.6254021401630157e-01 5.7203477978812742e+00 0 1 0
164 1 2.7100652111802475e+01 1.6821308837730220e+00 5.7356903100716554e+00 0 1 0
165 1 2.9882509432153139e+01 3.1159222850706181e+00 5.7399353572452609e+00 -1 0 0
166 2 3.7256854547755345e+00 2.9407879345692423e+00 4.1608449956553191e+00 0 0 0
167 3 3.7534258683761106e+00 2.9598359167564312e+00 7.2794410594674241e+00 0 0 0
168 1 2.9336533467293049e+00 4.5560766842878255e+00 5.7203461397046249e+00 0 0 0
169 2 6.4863704277387466e+00 4.3668414734672663e+00 4.1146667163313975e+00 0 0 0
170 3 6.5294132475905524e+00 4.3947667230857963e+00 7.2323324211788371e+00 0 0 0
171 1 5.7084602090975629e+00 5.9898533361389363e+00 5.6764235001962122e+00 0 0 0
172 2 9.2617548275114991e+00 5.7820196138738380e+00 4.0575423415196799e+00 0 0 0
173 3 9.3060214036560858e+00 5.8103874035123626e+00 7.1742120617479062e+00 0 0 0
174 1 8.4870016854108670e+00 7.4074050535325648e+00 5.6204956940798869e+00 0 0 0
175 2 1.2055367175229048e+01 7.1852961171362866e+00 4.0096667559638233e+00 0 0 0
176 3 1.2083728596868831e+01 7.2034907882754116e+00 7.1257815880923214e+00 0 0 0
177 1 1.1272011998178911e+01 8.8067495093855985e+00 5.5730802896531841e+00 0 0 0
178 2 1.4862329402265473e+01 8.5807416671927115e+00 3.9907709794984849e+00 0 0 0
179 3 1.4862328322874678e+01 8.5807409150676772e+00 7.1067644863179362e+00 0 0 0
180 1 1.4062315168194829e+01 1.0193417264705904e+01 5.5540962070061850e+00 0 0 0
181 2 1.7671048653453823e+01 9.9747671414224879e+00 4.0102496001096135e+00 0 0 0
182 3 1.7641863250423757e+01 9.9548418130686418e+00 7.1263682327719389e+00 0 0 0
183 1 1.6853215642961409e+01 1.1577042828481456e+01 5.5730828735639832e+00 0 0 0
184 2 2.0468241705954799e+01 1.1374752613866146e+01 4.0613416010198309e+00 0 0 0
185 3 2.0421866898871357e+01 1.1341037166905664e+01 7.1780984605848825e+00 0 0 0
186 1 1.9638147273309954e+01 1.2968743304610282e+01 5.6235620070880890e+00 0 0 0
187 2 2.3245976993077726e+01 1.2787163895891776e+01 4.1240305773341230e+00 0 0 0
188 3 2.3200808925184983e+01 1.2751546889619240e+01 7.2419975469866973e+00 0 0 0
189 1 2.2411911763038034e+01 1.4377388174660599e+01 5.6856982140655319e+00 0 0 0
190 2 2.6006331792481461e+01 1.4213646238353405e+01 4.1757805846315632e+00 0 0 0
191 3 2.5977680589674847e+01 1.4187569077913851e+01 7.2948992216069861e+00 0 0 0
192 1 2.5174342301422200e+01 1.5804238127678573e+01 5.7369365601171323e+00 0 0 0
193 2 2.8759529083372129e+01 1.5648572346403657e+01 4.2023423107250704e+00 0 0 0
194 3 2.8753561148518592e+01 1.5637210433465944e+01 7.3220239123516082e+00 0 0 0
195 1 2.7931081252811882e+01 1.7241053873083285e+01 5.7631089605573322e+00 0 0 0
196 2 3.1517770399891614e+01 1.7082157755465182e+01 4.2023415029172870e+00 0 0 0
197 3 3.1530595384511813e+01 1.7082670238758872e+01 7.3220230890752758e+00 0 0 0
198 1 3.0690481715510700e+01 1.8675287915442421e+01 5.7631081649438176e+00 0 0 0
199 2 3.4289283801272454e+01 1.8506791841309933e+01 4.1861112968965601e+00 0 0 0
200 3 3.4309718918876356e+01 1.8510593117630822e+01 7.3055016667582588e+00 0 0 0
201 1 3.3459070169449426e+01 2.0097957546147111e+01 5.7474719834131660e+00 0 0 0
202 2 3.7074386926013503e+01 1.9920647132596702e+01 4.1700616402621735e+00 0 0 0
203 3 3.7090100712609228e+01 1.9918319417521008e+01 7.2891481738715234e+00 0 0 0
204 1 3.6238605362025844e+01 2.1507756230815641e+01 5.7325521218418514e+00 0 0 0
205 1 3.9024865986352744e+01 2.2911764939382699e+01 5.7304754663678645e+00 0 0 0
206 1 5.5338607684147165e+00 2.8630812209912531e+00 5.6996518367682318e+00 0 0 0
207 1 8.3020864856670613e+00 4.2843237013027462e+00 5.6452669800494242e+00 0 0 0
208 2 1.1866475064847048e+01 4.0542106476383513e+00 4.0439444468796824e+00 0 0 0
209 3 1.1886186043699524e+01 4.0999651332368234e+00 7.1604728854593320e+00 0 0 0
210 1 1.1078976496850080e+01 5.6897730510271964e+00 5.5896949614623503e+00 0 0 0
211 2 1.4665230907822556e+01 5.4513066781936681e+00 4.0102475600742258e+00 0 0 0
212 3 1.4662566985718751e+01 5.4865429540387218e+00 7.1263661756852104e+00 0 0 0
213 1 1.3865717151864423e+01 7.0815713344702260e+00 5.5540954904492592e+00 0 0 0
214 2 1.7474301758633985e+01 6.8475643552592667e+00 4.0096686379626441e+00 0 0 0
215 3 1.7444362208234899e+01 6.8630283477651517e+00 7.1257834853926898e+00 0 0 0
216 1 1.6658954026301544e+01 8.4672355132576538e+00 5.5540968805152282e+00 0 0 0
217 2 2.0280346851946920e+01 8.2495224582332813e+00 4.0439477871988965e+00 0 0 0
218 3 2.0230865971631978e+01 8.2437151334709906e+00 7.1604762731678981e+00 0 0 0
219 1 1.9452564501300461e+01 9.8571745484495992e+00 5.5913903996815133e+00 0 0 0
220 2 2.3071968541731461e+01 9.6638621309624053e+00 4.0990778860923109e+00 0 0 0
221 3 2.3020698480063736e+01 9.6434851002199959e+00 7.2165986539945690e+00 0 0 0
222 1 2.2240075765557087e+01 1.1261826957145075e+01 5.6516932817582681e+00 0 0 0
223 2 2.5845775584056071e+01 1.1093945501688767e+01 4.1527278000593650e+00 0 0 0
224 3 2.5811309495251244e+01 1.1069783687548414e+01 7.2714182273722674e+00 0 0 0
225 1 2.5017699334560731e+01 1.2686355646536963e+01 5.7117426273828489e+00 0 0 0
226 2 2.8607542445680203e+01 1.2536054905416997e+01 4.1861126596564366e+00 0 0 0
227 3 2.8600617934677420e+01 1.2516457153399223e+01 7.3055030543664232e+00 0 0 0
228 1 2.7786720636477007e+01 1.4126070925564818e+01 5.7515686556755536e+00 0 0 0
229 2 3.1368001624910832e+01 1.3980067943438796e+01 4.1919365621688414e+00 0 0 0
230 3 3.1388150146911475e+01 1.3966740600591688e+01 7.3113941912482732e+00 0 0 0
231 1 3.0552865062014810e+01 1.5568460401574178e+01 5.7631084922513756e+00 0 0 0
232 2 3.4137051792747691e+01 1.5415281907074629e+01 4.1757783963660797e+00 0 0 0
233 3 3.4173961971639827e+01 1.5403507347556465e+01 7.2948969879715637e+00 0 0 0
234 1 3.3322700294972648e+01 1.7000931258709169e+01 5.7515671007924167e+00 0 0 0
235 1 3.6099914447633694e+01 1.8417423541002716e+01 5.7316893725797611e+00 0 0 0
236 1 1.3672633783441613e+01 3.9672645260886621e+00 5.5913873161341749e+00 0 0 0
237 2 1.7279806526982721e+01 3.7271417302590115e+00 4.0442996157002717e+00 0 0 0
238 3 1.7252302054212286e+01 3.7719732553970586e+00 7.1607626936244992e+00 0 0 0
239 1 1.6461758477901597e+01 5.3584321309261709e+00 5.5730814466955243e+00 0 0 0
240 2 2.0086380809822725e+01 5.1298643763222636e+00 4.0575452683702622e+00 0 0 0
241 3 2.0039679502019489e+01 5.1540157769181718e+00 7.1742150326930849e+00 0 0 0
242 1 1.9257657223787881e+01 6.7497472417191915e+00 5.5896978540002529e+00 0 0 0
243 2 2.2885480117253714e+01 6.5436558963069977e+00 4.0954139222830381e+00 0 0 0
244 3 2.2833513605927788e+01 6.5476797464791181e+00 7.2128121497887925e+00 0 0 0
245 1 2.2053360645256305e+01 8.1521228134725323e+00 5.6350651672675234e+00 0 0 0
246 2 2.5669388036347833e+01 7.9731915956879424e+00 4.1396341941362849e+00 0 0 0
247 3 2.5631257935291480e+01 7.9646365602298150e+00 7.2580365148929697e+00 0 0 0
248 1 2.4843151771919096e+01 9.5733880572782422e+00 5.6897396966818850e+00 0 0 0
249 2 2.8439426142374437e+01 9.4171575207896279e+00 4.1700626662831715e+00 0 0 0
250 3 2.8429554594425984e+01 9.4047123373472914e+00 7.2891492220402947e+00 0 0 0
251 1 2.7624832851418873e+01 1.1012686823057134e+01 5.7316910515249466e+00 0 0 0
252 2 3.1203766501495480e+01 1.0866789449192103e+01 4.1750168583660381e+00 0 0 0
253 3 3.1225741946239339e+01 1.0854681631698222e+01 7.2941329234203351e+00 0 0 0
254 1 3.0400639716148888e+01 1.2459457996521223e+01 5.7474727095447156e+00 0 0 0
255 1 3.3175553689222582e+01 1.3899461997761831e+01 5.7369344676384895e+00 0 0 0
256 1 1.9066131869410317e+01 3.6462154204176964e+00 5.6204979910998478e+00 0 0 0
257 2 2.2699652899353239e+01 3.4339011544076019e+00 4.1146695687480941e+00 0 0 0
258 3 2.2653947786628656e+01 3.4572138512738353e+00 7.2323353296447070e+00 0 0 0
259 1 2.1863257326020793e+01 5.0476156728401724e+00 5.6452702761821971e+00 0 0 0
260 2 2.5488449768960955e+01 4.8583691317810187e+00 4.1445469817663207e+00 0 0 0
261 3 2.5450826181628294e+01 4.8669262276579790e+00 7.2629016660626089e+00 0 0 0
262 1 2.4658819753204170e+01 6.4647660265430362e+00 5.6852644280314850e+00 0 0 0
263 2 2.8263143670006087e+01 6.2975948546788265e+00 4.1667846932388946e+00 0 0 0
264 3 2.8249800574260302e+01 6.2992013288891266e+00 7.2857008079200787e+00 0 0 0
265 1 2.7448476157994477e+01 7.9004848693546430e+00 5.7198884972228052e+00 0 0 0
266 2 3.1029253733098141e+01 7.7456602711756632e+00 4.1667970863975974e+00 0 0 0
267 3 3.1047847567433418e+01 7.7456477037135851e+00 7.2857050793995608e+00 0 0 0
268 1 3.0231794283069426e+01 9.3474107959984725e+00 5.7325524436756981e+00 0 0 0
269 1 2.4478202409462909e+01 3.3608840154880903e+00 5.6996544369460862e+00 0 0 0
270 2 2.8091157172510229e+01 3.1853241073590355e+00 4.1757710986703254e+00 0 0 0
271 3 2.8076854644527799e+01 3.1943691848574951e+00 7.2947103528289485e+00 0 0 0
272 1 2.7269438255187190e+01 4.7898510364939968e+00 5.7236419829691334e+00 0 0 0
273 1 3.0054571251092209e+01 6.2324340108015734e+00 5.7304750776968953e+00 0 0 0
274 5 2.8748283727996526e+01 1.5184079041114151e+00 1.0376130875878147e+01 -1 1 0
275 6 2.8754949440005888e+01 1.5105529787522702e+00 1.3495185956917116e+01 -1 1 0
276 5 4.1144798131669333e+01 2.2434553811592952e+01 1.0387413185891933e+01 -1 0 0
277 6 4.1147713206409662e+01 2.2450540805625458e+01 1.3506326537239250e+01 -1 0 0
278 4 4.1967568488025265e+01 2.4047877064979414e+01 1.1939119007083159e+01 -1 0 0
279 5 1.4035511032642686e+01 2.4137519067796259e+01 1.0376130632666149e+01 0 0 0
280 6 1.4038980194662257e+01 2.4147219283554652e+01 1.3495185717086805e+01 0 0 0
281 4 4.4587285844907179e+01 2.5742466950591776e+01 1.1932120739837025e+01 -1 0 0
282 5 1.8031731280595542e+00 8.6328002545071031e-02 1.0376131290070052e+01 0 1 0
283 6 1.7930368529831482e+00 8.4481851913943765e-02 1.3495186362925098e+01 0 1 0
284 4 2.6239986706192213e+00 1.6821394015317854e+00 1.1943365909946081e+01 0 1 0
285 5 4.4400231006541340e+00 1.7706136224909970e+00 1.0399613843626177e+01 0 1 0
286 6 4.4096569159913521e+00 1.7561137700324043e+00 1.3518209908103119e+01 0 1 0
287 5 3.6085078046637229e+01 1.5876017934211742e+01 1.0404934913569912e+01 -1 0 0
288 6 3.6050232475457918e+01 1.5908834802557559e+01 1.3523548079721092e+01 -1 0 0
289 4 3.6884853125369183e+01 1.7500050486647265e+01 1.1960606437712247e+01 -1 0 0
290 5 3.8688169193617583e+01 1.7581644869738675e+01 1.0419299770111959e+01 -1 0 0
291 6 3.8663179412472097e+01 1.7620617487333167e+01 1.3537587218982807e+01 -1 0 0
292 4 3.9494150853694741e+01 1.9210188502271844e+01 1.1967753548984030e+01 -1 0 0
293 5 1.1564342510190391e+01 1.9297086380263384e+01 1.0416427135725430e+01 0 0 0
294 6 1.1556275063605790e+01 1.9337727730130471e+01 1.3534723208031593e+01 0 0 0
295 4 1.2383448724395214e+01 2.0923620992108869e+01 1.1958707107886207e+01 0 0 0
296 5 1.4175720120398731e+01 2.1011797653223482e+01 1.0399611899741728e+01 0 0 0
297 6 1.4178346106292077e+01 2.1045344248900079e+01 1.3518208003931264e+01 0 0 0
298 4 1.5007111700122547e+01 2.2628757171556444e+01 1.1943364639067910e+01 0 0 0
299 5 1.6804849748069024e+01 2.2718054179714585e+01 1.0384344586316121e+01 0 0 0
300 6 1.6804167741819892e+01 2.2734963045427161e+01 1.3503283841252475e+01 0 0 0
301 4 1.7639740135258677e+01 2.4321020533926557e+01 1.1939119600472308e+01 0 0 0
302 5 1.9448304702360712e+01 2.4415142766793451e+01 1.0387414123631208e+01 0 0 0
303 6 1.9433001432448325e+01 2.4409672690682559e+01 1.3506327460036486e+01 0 0 0
304 4 5.4125218801865964e+00 2.6254940088169876e-01 1.1958708783221116e+01 0 1 0
305 5 7.2306954625735145e+00 3.6645088439420559e-01 1.0416429013620702e+01 0 1 0
306 6 7.1995324786681172e+00 3.3914242059239086e-01 1.3534725047628040e+01 0 1 0
307 4 8.0416123104209625e+00 1.9487142673208437e+00 1.2002631358212174e+01 0 1 0
308 5 9.8623415404843033e+00 2.0648657800040238e+00 1.0465734662729110e+01 0 1 0
309 6 9.8249691321744734e+00 2.0228352659685411e+00 1.3583031061513054e+01 0 1 0
310 5 3.3638304479361253e+01 1.1069791628083523e+01 1.0407639176999398e+01 -1 0 0
311 6 3.3603836973640313e+01 1.1093953871077401e+01 1.3526329548170333e+01 -1 0 0
312 4 3.4431913830225916e+01 1.2686364045683753e+01 1.1967314961156829e+01 -1 0 0
313 5 3.6248804349582045e+01 1.2751555990961640e+01 1.0437060464572788e+01 -1 0 0
314 6 3.6203635934686574e+01 1.2787173511985872e+01 1.3555027365976610e+01 -1 0 0
315 4 3.7037701257270619e+01 1.4377397742743666e+01 1.1993359521296176e+01 -1 0 0
316 5 9.1241410129134941e+00 1.4452804781350439e+01 1.0461442115783944e+01 0 0 0
317 6 9.0862811407513178e+00 1.4499226677590730e+01 1.3578843413585485e+01 0 0 0
318 4 9.9186563812963069e+00 1.6085984663730940e+01 1.2008627963604551e+01 0 0 0
319 5 1.1719389028930850e+01 1.6168806267417473e+01 1.0465732418518007e+01 0 0 0
320 6 1.1701676779760090e+01 1.6222186959223073e+01 1.3583028859341143e+01 0 0 0
321 4 1.2529164534465112e+01 1.7803679546817914e+01 1.2002628899670272e+01 0 0 0
322 5 1.4321026388765761e+01 1.7890256781815630e+01 1.0446719478343912e+01 0 0 0
323 6 1.4323689518236996e+01 1.7941494838923354e+01 1.3564385242626049e+01 0 0 0
324 4 1.5149729626114178e+01 1.9518272498838062e+01 1.1979400437054013e+01 0 0 0
325 5 1.6940312344001036e+01 1.9607568272103542e+01 1.0416153223367205e+01 0 0 0
326 6 1.6951713432060348e+01 1.9644429757315223e+01 1.3534507909449047e+01 0 0 0
327 4 1.7782869308061883e+01 2.1221070095094422e+01 1.1955412951431841e+01 0 0 0
328 5 1.9580186174859204e+01 2.1315413583425670e+01 1.0393354134733306e+01 0 0 0
329 6 1.9585466445851651e+01 2.1327772282870502e+01 1.3512270249522846e+01 0 0 0
330 4 2.0424749318757780e+01 2.2911774494952372e+01 1.1948579878952104e+01 0 0 0
331 5 2.2231868979415786e+01 2.3015370114056026e+01 1.0393349875075337e+01 0 0 0
332 6 2.2222582933910530e+01 2.2999261145521157e+01 1.3512257867432259e+01 0 0 0
333 4 2.3066010446256481e+01 2.4597822768098393e+01 1.1967754757077010e+01 0 0 0
334 5 2.4879361304728953e+01 2.4714094791324225e+01 1.0419300898044771e+01 0 0 0
335 6 2.4858105038382931e+01 2.4672965581705746e+01 1.3537588321559014e+01 0 0 0
336 4 1.0834433546822101e+01 5.4679576296604715e-01 1.2008629512847126e+01 0 1 0
337 5 1.2646065945281018e+01 6.7531585798713045e-01 1.0461443215369243e+01 0 1 0
338 6 1.2624794135394826e+01 6.1931672878087807e-01 1.3578844494159442e+01 0 1 0
339 4 1.3450110522577058e+01 2.2507712241653901e+00 1.2055496479482279e+01 0 1 0
340 5 1.5251604680291180e+01 2.3859031787819074e+00 1.0500959667278879e+01 0 1 0
341 6 1.5245594516813451e+01 2.3288843682345317e+00 1.3617716478020636e+01 0 1 0
342 5 3.1199813686694252e+01 6.2992088200831304e+00 1.0393355185444102e+01 -1 0 0
343 6 3.1186468660145927e+01 6.2976025614908648e+00 1.3512271279708957e+01 -1 0 0
344 4 3.2001137268902767e+01 7.9004924921449362e+00 1.1959168065095101e+01 -1 0 0
345 5 3.3818356208585918e+01 7.9646447407627141e+00 1.0421021061071148e+01 -1 0 0
346 6 3.3780224694341797e+01 7.9731998872869454e+00 1.3539423323672434e+01 -1 0 0
347 4 3.4606461639226964e+01 9.5733964682961368e+00 1.1989318224572990e+01 -1 0 0
348 5 6.7039520852529808e+00 9.6434944552366044e+00 1.0462459703922415e+01 0 0 0
349 6 6.6526816540950993e+00 9.6638715928429590e+00 1.3579980400646619e+01 0 0 0
350 4 7.4845745410817548e+00 1.1261836568440760e+01 1.2027364999820941e+01 0 0 0
351 5 9.3027829772097554e+00 1.1341047705415740e+01 1.0500959504289149e+01 0 0 0
352 6 9.2564089911816332e+00 1.1374763295072007e+01 1.3617716312741400e+01 0 0 0
353 4 1.0086503008659623e+01 1.2968754014196010e+01 1.2055495472318858e+01 0 0 0
354 5 1.1892793002267465e+01 1.3054914640513518e+01 1.0518291958551563e+01 0 0 0
355 6 1.1867719976185647e+01 1.3101149933919778e+01 1.3634755039209070e+01 0 0 0
356 4 1.2690798461382219e+01 1.4688616224599643e+01 1.2058556711887435e+01 0 0 0
357 5 1.4483365715172621e+01 1.4777833024697184e+01 1.0504839697128308e+01 0 0 0
358 6 1.4485800579802401e+01 1.4830353189970010e+01 1.3621509464436151e+01 0 0 0
359 4 1.5303009445519763e+01 1.6410297760476261e+01 1.2033784518593039e+01 0 0 0
360 5 1.7087231214051918e+01 1.6500532304534381e+01 1.0466242681983932e+01 0 0 0
361 6 1.7109729637631478e+01 1.6547548504223172e+01 1.3583640912059966e+01 0 0 0
362 4 1.7928078902458999e+01 1.8122750624803146e+01 1.1993790462666931e+01 0 0 0
363 5 1.9713224006851171e+01 1.8214971511843224e+01 1.0421018406666109e+01 0 0 0
364 6 1.9739697873150561e+01 1.8243715611943681e+01 1.3539420728432427e+01 0 0 0
365 4 2.0566276127542203e+01 1.9820804483236966e+01 1.1959166461559393e+01 0 0 0