LAMMPS data file via write_data, version 30 Mar 2018, timestep = 1077

546 atoms
6 atom types

0.0000000000000000e+00 2.9724743224600001e+01 xlo xhi
0.0000000000000000e+00 2.5742382354699998e+01 ylo yhi
0.0000000000000000e+00 1.0000000000000000e+02 zlo zhi
1.4862372303000001e+01 0.0000000000000000e+00 0.0000000000000000e+00 xy xz yz

Masses

1 95.94
2 32.066
3 32.066
4 95.94
5 32.066
6 32.066

Atoms # atomic

1 2 2.7917091170750329e+01 1.1786515705654818e-01 3.9938296181192623e+00 -1 1 0
2 3 2.7939881306665832e+01 1.1934448069207333e-01 7.1099102821163189e+00 -1 1 0
3 2 1.0059015494659298e+00 1.5065416338691755e+00 3.9938296143147625e+00 0 1 0
4 3 9.9578761645845904e-01 1.4860651398238229e+00 7.1099102783308314e+00 0 1 0
5 2 3.9782907933567046e+01 2.1336114476562223e+01 4.0667445476373310e+00 -1 0 0
6 3 3.9822436023866366e+01 2.1379821054308461e+01 7.1835379843755041e+00 -1 0 0
7 2 4.2578221728451275e+01 2.2730127304016776e+01 4.0140600954528658e+00 -1 0 0
8 3 4.2597029002641079e+01 2.2766816885923053e+01 7.1302918125437502e+00 -1 0 0
9 1 4.1791914369536499e+01 2.4362574311226282e+01 5.5643271499642228e+00 -1 0 0
10 2 1.5664126109262492e+01 2.4117976920770158e+01 3.9938296187485540e+00 0 0 0
11 3 1.5651449913514661e+01 2.4136974099561147e+01 7.1099102827769896e+00 0 0 0
12 1 1.0970280600645456e-06 4.6933022763018824e-07 5.5431147884716339e+00 0 1 0
13 2 1.8475510633210980e+01 2.5508756634267218e+01 4.0140600871777554e+00 0 0 0
14 3 1.8434332891495330e+01 2.5506699427790846e+01 7.1302918046264647e+00 0 0 0
15 1 2.7963409797559491e+00 1.3801773551069636e+00 5.5639958010214787e+00 0 1 0
16 2 6.4112910722207470e+00 1.1688730696519851e+00 4.0646582602038928e+00 0 1 0
17 3 6.3576643671808473e+00 1.1509359457827033e+00 7.1816171243194189e+00 0 1 0
18 2 9.1901139165331855e+00 2.5891230475111842e+00 4.1234788551982966e+00 0 1 0
19 3 9.1443295092898165e+00 2.5658206982319585e+00 7.2416440658587380e+00 0 1 0
20 2 3.6863738793646156e+01 1.6804965206237856e+01 4.1646931905552966e+00 -1 0 0
21 3 3.6889417573100062e+01 1.6830033013823268e+01 7.2831597538175323e+00 -1 0 0
22 2 3.9617372615882957e+01 1.8210792311078389e+01 4.1159262339545108e+00 -1 0 0
23 3 3.9642564611339701e+01 1.8257438797817439e+01 7.2337158087626809e+00 -1 0 0
24 1 3.8825193026255754e+01 1.9845907507074784e+01 5.6613906728838286e+00 -1 0 0
25 2 1.2669001670844922e+01 1.9605606620601417e+01 4.0646582769427191e+00 0 0 0
26 3 1.2680281013416362e+01 1.9661017277593992e+01 7.1816171402877149e+00 0 0 0
27 1 4.1597637186753779e+01 2.1245654326885195e+01 5.6015757305841829e+00 -1 0 0
28 2 1.5467230867952047e+01 2.0993861807949433e+01 4.0321408348984846e+00 0 0 0
29 3 1.5452879849603551e+01 2.1042930343517288e+01 7.1485714124766657e+00 0 0 0
30 1 1.4659471656057772e+01 2.2630593072797453e+01 5.5639958104311580e+00 0 0 0
31 2 1.8276089268801577e+01 2.2383931923291509e+01 4.0332053702958248e+00 0 0 0
32 3 1.8234207849698052e+01 2.2415820069705187e+01 7.1495456354702451e+00 0 0 0
33 1 1.7454923703327236e+01 2.4011570986248167e+01 5.5643271473421363e+00 0 0 0
34 2 2.1080418007447019e+01 2.3784950355566753e+01 4.0667445397368160e+00 0 0 0
35 3 2.1022802957796959e+01 2.3797329407378474e+01 7.1835379771558028e+00 0 0 0
36 1 2.0251394218296930e+01 2.5401782076643958e+01 5.6015757191578661e+00 0 0 0
37 2 2.3869794097365784e+01 2.5204253720611774e+01 4.1159262196817368e+00 0 0 0
38 3 2.3816801056190805e+01 2.5202747393986321e+01 7.2337157957887799e+00 0 0 0
39 1 8.1798145325327045e+00 1.0697166291127009e+00 5.6582986128721897e+00 0 1 0
40 2 1.1781084795631058e+01 9.0111519639778870e-01 4.1584798793718774e+00 0 1 0
41 3 1.1751105911519247e+01 8.9425653086221402e-01 7.2772544875561591e+00 0 1 0
42 1 1.0961952197323678e+01 2.5029496001877813e+00 5.7106988318786804e+00 0 1 0
43 2 1.4546537490336387e+01 2.3533083643829151e+00 4.1784469300549247e+00 0 1 0
44 3 1.4548230749011712e+01 2.3466363790643094e+00 7.2976718380034828e+00 0 1 0
45 2 3.3999161548471236e+01 1.2273279823769100e+01 4.1782881364076365e+00 -1 0 0
46 3 3.4001951258948679e+01 1.2241751684244571e+01 7.2968249384687693e+00 -1 0 0
47 2 3.6736512332180922e+01 1.3682184404372547e+01 4.1795290816438486e+00 -1 0 0
48 3 3.6743798231316518e+01 1.3680883196178042e+01 7.2984138911495400e+00 -1 0 0
49 1 3.5923185715659706e+01 1.5291398507104081e+01 5.7415441184866145e+00 -1 0 0
50 2 9.7522195686690640e+00 1.5089107849183732e+01 4.1584798942289884e+00 0 0 0
51 3 9.7612692258307430e+00 1.5118499654810597e+01 7.2772545006871372e+00 0 0 0
52 1 3.8668108629958653e+01 1.6714176970495600e+01 5.7062722789852449e+00 -1 0 0
53 2 1.2509562768777453e+01 1.6488950528609543e+01 4.1234788751754055e+00 0 0 0
54 3 1.2512274541034792e+01 1.6540252163262771e+01 7.2416440847306598e+00 0 0 0
55 1 1.1698867879716651e+01 1.8123598638774592e+01 5.6582986304194556e+00 0 0 0
56 2 1.5290054187230634e+01 1.7881818729901294e+01 4.0913069977184540e+00 0 0 0
57 3 1.5276020369432484e+01 1.7939978277406780e+01 7.2087333306320751e+00 0 0 0
58 1 1.4471054067831343e+01 1.9517958357689054e+01 5.6169376433220561e+00 0 0 0
59 2 1.8088664237062119e+01 1.9273443183207455e+01 4.0796502906777512e+00 0 0 0
60 3 1.8052017885334156e+01 1.9323481800724707e+01 7.1966522877018617e+00 0 0 0
61 1 1.7258479965695621e+01 2.0903983823633162e+01 5.6014073932321722e+00 0 0 0
62 2 2.0891632645992996e+01 2.0672529493902811e+01 4.0958058778574751e+00 0 0 0
63 3 2.0837981520505128e+01 2.0706281631564060e+01 7.2128911591536937e+00 0 0 0
64 1 2.0054069368553058e+01 2.2293986903069339e+01 5.6193973265597350e+00 0 0 0
65 2 2.3685279578264886e+01 2.2087476468621695e+01 4.1307183537100469e+00 0 0 0
66 3 2.3631435626175708e+01 2.2105917434928305e+01 7.2484043074180358e+00 0 0 0
67 1 2.2849832557112734e+01 2.3700648480582949e+01 5.6613906635983700e+00 0 0 0
68 2 2.6464092952842726e+01 2.3522450499676125e+01 4.1646931811249184e+00 0 0 0
69 3 2.6429544202337382e+01 2.3532155078918883e+01 7.2831597459571364e+00 0 0 0
70 1 2.5640532997304447e+01 2.5130474742813430e+01 5.7062722659830802e+00 0 0 0
71 2 2.9232113731685867e+01 2.4973659627388479e+01 4.1795290732415546e+00 0 0 0
72 3 2.9229597655699948e+01 2.4980620007880514e+01 7.2984138846682631e+00 0 0 0
73 1 1.3562840763304958e+01 8.3664034568507117e-01 5.7338509763734375e+00 0 1 0
74 2 1.7136599498554034e+01 6.8696374150106543e-01 4.1672080532170570e+00 0 1 0
75 3 1.7167416790081742e+01 6.9198895193276677e-01 7.2859385226234181e+00 0 1 0
76 1 1.6344435084267850e+01 2.2896967970232183e+00 5.7344093238447327e+00 0 1 0
77 2 1.9912509905726743e+01 2.1328624056959611e+00 4.1324617655353570e+00 0 1 0
78 3 1.9966073936222600e+01 2.1308786487718963e+00 7.2505856549240075e+00 0 1 0
79 2 3.3867428241418054e+01 9.1535065894744925e+00 4.1357171637482528e+00 -1 0 0
80 3 3.3855757995576795e+01 9.0998440054579941e+00 7.2535858178493005e+00 -1 0 0
81 1 3.3043112904869680e+01 1.0735931154523795e+01 5.7177254722453199e+00 -1 0 0
82 2 6.8890014892028795e+00 1.0558171867120373e+01 4.1672080555425666e+00 0 0 0
83 3 6.8779448016715801e+00 1.0528970697479208e+01 7.2859385231762133e+00 0 0 0
84 1 3.5790695208447524e+01 1.2154198172610982e+01 5.7367651635079016e+00 -1 0 0
85 2 9.6271293530770397e+00 1.1968059053274462e+01 4.1784469390817920e+00 0 0 0
86 3 9.6205046115724571e+00 1.1969928633409541e+01 7.2976718453001439e+00 0 0 0
87 1 8.8055046591772985e+00 1.3578299382214720e+01 5.7338509869079388e+00 0 0 0
88 2 1.2372386567949956e+01 1.3376954616311926e+01 4.1687305020065581e+00 0 0 0
89 3 1.2367564550647437e+01 1.3406749511060793e+01 7.2879037988887463e+00 0 0 0
90 1 1.1549015169089738e+01 1.4997580328751265e+01 5.7106988491226920e+00 0 0 0
91 2 1.5136390959689958e+01 1.4780083649421343e+01 4.1479186173657707e+00 0 0 0
92 3 1.5125632828442004e+01 1.4826297720093089e+01 7.2665920612043786e+00 0 0 0
93 1 1.4306669183353062e+01 1.6404694560864293e+01 5.6794154490374531e+00 0 0 0
94 2 1.7921377730203659e+01 1.6178307628334689e+01 4.1324617801525658e+00 0 0 0
95 3 1.7896313694318074e+01 1.6225687320745863e+01 7.2505856687461883e+00 0 0 0
96 1 1.7082111579824122e+01 1.7800229689269461e+01 5.6580709526816229e+00 0 0 0
97 2 2.0718200321435432e+01 1.7577960500143256e+01 4.1357171784909523e+00 0 0 0
98 3 2.0677562288813121e+01 1.7614898527196068e+01 7.2535858334991783e+00 0 0 0
99 1 1.9871264405708281e+01 1.9193133871650065e+01 5.6606029775599014e+00 0 0 0
100 2 2.3511981213718268e+01 1.8987642970533464e+01 4.1575092549397556e+00 0 0 0
101 3 2.3466049647229081e+01 1.9011637637458538e+01 7.2755105428822064e+00 0 0 0
102 1 2.2665712305547515e+01 2.0596534560100835e+01 5.6865281663022040e+00 0 0 0
103 2 2.6292417341270848e+01 2.0413837269494444e+01 4.1832995987693664e+00 0 0 0
104 3 2.6258570454699072e+01 2.0430255068763284e+01 7.3016930318823672e+00 0 0 0
105 1 2.5458067551842067e+01 2.2020350496734675e+01 5.7203000290264265e+00 0 0 0
106 2 2.9059346424630405e+01 2.1856541851534551e+01 4.1942320160516324e+00 0 0 0
107 3 2.9052570619579242e+01 2.1872434164350388e+01 7.3129185529284628e+00 0 0 0
108 1 2.8245156705336491e+01 2.3464691069565628e+01 5.7415441111347585e+00 0 0 0
109 2 3.1820936239811811e+01 2.3307496673254537e+01 4.1782881334163440e+00 0 0 0
110 3 3.1846845549674075e+01 2.3325676703110382e+01 7.2968249370866003e+00 0 0 0
111 1 3.1028297186984958e+01 2.4918551165006647e+01 5.7367651594890043e+00 0 0 0
112 2 3.4588605807634082e+01 2.4753298977063725e+01 4.1357171660621992e+00 0 0 0
113 3 3.4640914086915593e+01 2.4770023536065917e+01 7.2535858215320523e+00 0 0 0
114 1 1.8949209539232957e+01 6.2272476770941232e-01 5.7049704279146392e+00 0 1 0
115 2 2.2509332706080116e+01 4.4042033470944481e-01 4.0796502815771518e+00 0 1 0
116 3 2.2570990589519841e+01 4.4713769946936055e-01 7.1966522789854022e+00 0 1 0
117 1 2.1736768704685407e+01 2.0487272256478755e+00 5.6580709416179715e+00 0 1 0
118 2 2.5309975706692381e+01 1.8504389214501140e+00 4.0321408287558951e+00 0 1 0
119 3 2.5359645810910155e+01 1.8383330009210843e+00 7.1485714065702322e+00 0 1 0
120 2 3.0926390297077610e+01 4.6355905904709447e+00 4.0332053631332894e+00 -1 0 0
121 3 3.0919715073246678e+01 4.5833761454270547e+00 7.1495456279051322e+00 -1 0 0
122 2 3.9891218954758800e+00 6.0285201935947201e+00 4.0796502740911658e+00 0 0 0
123 3 3.9641103658608512e+00 5.9717642142023450e+00 7.1966522707393219e+00 0 0 0
124 1 3.2892114993814857e+01 7.6124518876880396e+00 5.6606029639955961e+00 -1 0 0
125 2 6.7532312109845281e+00 7.4312136762355125e+00 4.1324617597563940e+00 0 0 0
126 3 6.7247312137397719e+00 7.3858177368820117e+00 7.2505856479838187e+00 0 0 0
127 1 5.9270638180697706e+00 9.0205250497420746e+00 5.7049704250926005e+00 0 0 0
128 2 9.5003982279229469e+00 8.8449868973456631e+00 4.1720490787672855e+00 0 0 0
129 3 9.4791293209420218e+00 8.8224546495067315e+00 7.2911704518607028e+00 0 0 0
130 1 8.6730912552409727e+00 1.0442839884621010e+01 5.7344093266104332e+00 0 0 0
131 2 1.2244235024978540e+01 1.0264680393123397e+01 4.1886650899121980e+00 0 0 0
132 3 1.2233208063354315e+01 1.0267828513829279e+01 7.3082624836721646e+00 0 0 0
133 1 1.1415186357218705e+01 1.1870110903584260e+01 5.7410903011981747e+00 0 0 0
134 2 1.4998822054854909e+01 1.1682070737835502e+01 4.1845324558469619e+00 0 0 0
135 3 1.4993486531057490e+01 1.1704708540843466e+01 7.3040573650978686e+00 0 0 0
136 1 1.4164904072650501e+01 1.3291050108875568e+01 5.7288919316426012e+00 0 0 0
137 2 1.7772157708282382e+01 1.3092304665317425e+01 4.1720490953317908e+00 0 0 0
138 3 1.7763278663973406e+01 1.3121990196763480e+01 7.2911704688088763e+00 0 0 0
139 1 1.6929986386077033e+01 1.4699654461396396e+01 5.7113597897558481e+00 0 0 0
140 2 2.0561517861361096e+01 1.4497248101984432e+01 4.1672080714545263e+00 0 0 0
141 3 2.0541757254571408e+01 1.4521424057556723e+01 7.2859385399865557e+00 0 0 0
142 1 1.9710845470299876e+01 1.6099133938470271e+01 5.7049704434413648e+00 0 0 0
143 2 2.3354136584383699e+01 1.5903989570820874e+01 4.1782881470719788e+00 0 0 0
144 3 2.3325437565072704e+01 1.5917337683530400e+01 7.2968249501893236e+00 0 0 0
145 1 2.2500777884109439e+01 1.7500626288094178e+01 5.7177254834034583e+00 0 0 0
146 2 2.6136048776696999e+01 1.7320472129189824e+01 4.1983981297466846e+00 0 0 0
147 3 2.6110395842908485e+01 1.7327366558812191e+01 7.3169559549089529e+00 0 0 0
148 1 2.5290781674563490e+01 1.8916520063703945e+01 5.7419146801735472e+00 0 0 0
149 2 2.8901814294951656e+01 1.8750401120475747e+01 4.2103033559880876e+00 0 0 0
150 3 2.8893983679816508e+01 1.8759926510086800e+01 7.3289659867736638e+00 0 0 0
151 1 2.8075168110054072e+01 2.0351932315386090e+01 5.7592616729766046e+00 0 0 0
152 2 3.1656689977446135e+01 2.0190048835920415e+01 4.1983981239692874e+00 0 0 0
153 3 3.1675487191155199e+01 2.0208817720901344e+01 7.3169559491533507e+00 0 0 0
154 1 3.0853655503822168e+01 2.1800751795850250e+01 5.7531659066980803e+00 0 0 0
155 2 3.4412536145412233e+01 2.1628972585872564e+01 4.1575092495560471e+00 0 0 0
156 3 3.4456281911942433e+01 2.1656753162604886e+01 7.2755105373363786e+00 0 0 0
157 1 3.3630343564030142e+01 2.3248208672372538e+01 5.7177254724946636e+00 0 0 0
158 2 3.7181865044598680e+01 2.3055817752785703e+01 4.0958058749686836e+00 0 0 0
159 3 3.7237920807442968e+01 2.3085404927751487e+01 7.2128911561014908e+00 0 0 0
160 1 3.6410854951817242e+01 2.4679180355222147e+01 5.6606029693256037e+00 0 0 0
161 2 3.9971754794560503e+01 2.4465243552802097e+01 4.0332053697464056e+00 0 0 0
162 3 4.0020311442941583e+01 2.4485569858327992e+01 7.1495456348226876e+00 0 0 0
163 1 2.4336514473544501e+01 3.4411072998918163e-01 5.6014073881569679e+00 0 1 0
164 1 2.7131306183982918e+01 1.7316133339737547e+00 5.5639958065789994e+00 0 1 0
165 1 2.9927396274282778e+01 3.1106208194551370e+00 5.5643271445592477e+00 -1 0 0
166 2 3.8099122593498072e+00 2.8980829821813980e+00 4.0321408203761289e+00 0 0 0
167 3 3.7745931778713362e+00 2.8611203723326710e+00 7.1485713981279604e+00 0 0 0
168 1 2.9921243822971109e+00 4.4942892070570286e+00 5.6014073799703104e+00 0 0 0
169 2 6.5936090045907090e+00 4.3006650857263926e+00 4.0913069766078918e+00 0 0 0
170 3 6.5502582707120345e+00 4.2594316722315551e+00 7.2087333098525077e+00 0 0 0
171 1 5.7682385412327628e+00 5.8934268418169564e+00 5.6580709322618725e+00 0 0 0
172 2 9.3566220378262397e+00 5.7184564374504312e+00 4.1479185968568677e+00 0 0 0
173 3 9.3219785406545999e+00 5.6860325867228489e+00 7.2665920411075851e+00 0 0 0
174 1 8.5294780917840729e+00 7.3119702416856382e+00 5.7113597693991069e+00 0 0 0
175 2 1.2108364416225163e+01 7.1483247980834337e+00 4.1845324433225475e+00 0 0 0
176 3 1.2091427256936068e+01 7.1323851935136116e+00 7.3040573528971366e+00 0 0 0
177 1 1.1281168805751243e+01 8.7441568870587911e+00 5.7445460978578948e+00 0 0 0
178 2 1.4862372953723320e+01 8.5807945686780922e+00 4.1957930699999073e+00 0 0 0
179 3 1.4862372950114418e+01 8.5807945628085900e+00 7.3155777583573025e+00 0 0 0
180 1 1.4033047018859076e+01 1.0177491944212404e+01 5.7530856260429797e+00 0 0 0
181 2 1.7629729902019250e+01 1.0006225618728736e+01 4.1886650963845398e+00 0 0 0
182 3 1.7637969735668300e+01 1.0014201176191277e+01 7.3082624906371363e+00 0 0 0
183 1 1.6794451007053670e+01 1.1600527146393091e+01 5.7445461106359001e+00 0 0 0
184 2 2.0413452010135632e+01 1.1421016291382024e+01 4.1784469493225664e+00 0 0 0
185 3 2.0418383487299756e+01 1.1425818687849516e+01 7.2976718564236407e+00 0 0 0
186 1 1.9569592492023659e+01 1.3009847069565591e+01 5.7344093423015972e+00 0 0 0
187 2 2.3205608311737709e+01 1.2828922034694708e+01 4.1795290914645911e+00 0 0 0
188 3 2.3200838487409705e+01 1.2823262861497939e+01 7.2984139019437695e+00 0 0 0
189 1 2.2355241960208907e+01 1.4412016774153054e+01 5.7367651770425967e+00 0 0 0
190 2 2.5991495182901268e+01 1.4237860122312282e+01 4.1942320271296287e+00 0 0 0
191 3 2.5981119946204153e+01 1.4224045951318541e+01 7.3129185632747689e+00 0 0 0
192 1 2.5142656297196758e+01 1.5819672401596577e+01 5.7531659174309890e+00 0 0 0
193 2 2.8760258069409925e+01 1.5654503736208452e+01 4.2103033587895453e+00 0 0 0
194 3 2.8755924154302200e+01 1.5642959533286122e+01 7.3289659891747672e+00 0 0 0
195 1 2.7923642008253104e+01 1.7242631942978822e+01 5.7704512307857705e+00 0 0 0
196 2 3.1512162007090211e+01 1.7079861214076665e+01 4.2103033564993382e+00 0 0 0
197 3 3.1524326540936862e+01 1.7081880035123397e+01 7.3289659867861960e+00 0 0 0
198 1 3.0695481715619128e+01 1.8680867823222631e+01 5.7704512278981595e+00 0 0 0
199 2 3.4257438531160034e+01 1.8507947188748918e+01 4.1832996004494918e+00 0 0 0
200 3 3.4288580198418671e+01 1.8529050557683071e+01 7.3016930326994478e+00 0 0 0
201 1 3.3461541601632916e+01 2.0124047696032608e+01 5.7419146767759894e+00 0 0 0
202 2 3.7010421558959905e+01 1.9928975123223235e+01 4.1307183585641418e+00 0 0 0
203 3 3.7053313871104137e+01 1.9966384876239680e+01 7.2484043113733581e+00 0 0 0
204 1 3.6229011602476938e+01 2.1557417209348436e+01 5.6865281651275339e+00 0 0 0
205 1 3.9004870004998793e+01 2.2970440171334257e+01 5.6193973282502281e+00 0 0 0
206 1 5.5861705468503580e+00 2.7733203667571740e+00 5.6169376251365382e+00 0 0 0
207 1 8.3645285650752097e+00 4.1875908487896849e+00 5.6794154276452575e+00 0 0 0
208 2 1.1953769577359724e+01 4.0263230009409092e+00 4.1687304860904835e+00 0 0 0
209 3 1.1930377443035390e+01 4.0072495639111354e+00 7.2879037841863337e+00 0 0 0
210 1 1.1131906354788322e+01 5.6216409569040771e+00 5.7288919147288508e+00 0 0 0
211 2 1.4713153931918965e+01 5.4714776950421635e+00 4.1886650840828263e+00 0 0 0
212 3 1.4715941050475383e+01 5.4603540017006669e+00 7.3082624787906170e+00 0 0 0
213 1 1.3894255388920532e+01 7.0642285529009818e+00 5.7530856198273783e+00 0 0 0
214 2 1.7479932387592569e+01 6.9119881709870850e+00 4.1845324498632719e+00 0 0 0
215 3 1.7502205061220486e+01 6.9052899573061532e+00 7.3040573597976275e+00 0 0 0
216 1 1.6659816428629213e+01 8.5006632471934367e+00 5.7530856265916563e+00 0 0 0
217 2 2.0260962709132269e+01 8.3391060911108621e+00 4.1687305022089038e+00 0 0 0
218 3 2.0289176853933906e+01 8.3283846224678850e+00 7.2879037999648943e+00 0 0 0
219 1 1.9434597860287106e+01 9.9214876108486596e+00 5.7410903079850595e+00 0 0 0
220 2 2.3053814484324434e+01 9.7521606649957420e+00 4.1584798979697188e+00 0 0 0
221 3 2.3074743708702922e+01 9.7296275210559049e+00 7.2772545052825519e+00 0 0 0
222 1 2.2218773407541420e+01 1.1327444025944152e+01 5.7338509962987567e+00 0 0 0
223 2 2.5846402625340520e+01 1.1157350361678155e+01 4.1646931945047614e+00 0 0 0
224 3 2.5855272597672741e+01 1.1122577977722981e+01 7.2831597582938761e+00 0 0 0
225 1 2.5005891933554938e+01 1.2728676537496504e+01 5.7415441263210809e+00 0 0 0
226 2 2.8624378497987799e+01 1.2562981611154244e+01 4.1832996030696776e+00 0 0 0
227 3 2.8627083720513628e+01 1.2525460449543649e+01 7.3016930352125868e+00 0 0 0
228 1 2.7786614427261746e+01 1.4137841548024008e+01 5.7592616794006846e+00 0 0 0
229 2 3.1381495617105379e+01 1.3974245104855200e+01 4.1983981263969090e+00 0 0 0
230 3 3.1388351340368676e+01 1.3948581797140283e+01 7.3169559507289250e+00 0 0 0
231 1 3.0555110629167281e+01 1.5561266352692952e+01 5.7704512296401687e+00 0 0 0
232 2 3.4123392764768226e+01 1.5390364095238931e+01 4.1942320209005040e+00 0 0 0
233 3 3.4140543808696869e+01 1.5388285958498589e+01 7.3129185563660455e+00 0 0 0
234 1 3.3312451815838443e+01 1.6994992254436156e+01 5.7592616751519889e+00 0 0 0
235 1 3.6065894706706928e+01 1.8427258731587457e+01 5.7203000343349739e+00 0 0 0
236 1 1.3737334616293021e+01 3.9507852335979683e+00 5.7410902910789270e+00 0 0 0
237 2 1.7314562918391182e+01 3.8050921456861229e+00 4.1720490797280396e+00 0 0 0
238 3 1.7344710862773784e+01 3.7979388512931838e+00 7.2911704540734341e+00 0 0 0
239 1 1.6511499022138185e+01 5.3976997128133419e+00 5.7445460990848876e+00 0 0 0
240 2 2.0094105854156130e+01 5.2438436220511440e+00 4.1479186076750247e+00 0 0 0
241 3 2.0139507476877867e+01 5.2300533930457673e+00 7.2665920523819816e+00 0 0 0
242 1 1.9290308406012876e+01 6.8296926822751685e+00 5.7288919270464040e+00 0 0 0
243 2 2.2887442161093084e+01 6.6643101341852535e+00 4.1234788708784027e+00 0 0 0
244 3 2.2930514793682534e+01 6.6363108447090173e+00 7.2416440811636758e+00 0 0 0
245 1 2.2076151463808355e+01 8.2418538235700680e+00 5.7106988501200400e+00 0 0 0
246 2 2.5687067655993545e+01 8.0697200348598450e+00 4.1159262325347186e+00 0 0 0
247 3 2.5714868702996011e+01 8.0245798765477936e+00 7.2337158077310271e+00 0 0 0
248 1 2.4865592727243865e+01 9.6401143990351112e+00 5.7062722822070260e+00 0 0 0
249 2 2.8478533230260851e+01 9.4683144759845383e+00 4.1307183578326914e+00 0 0 0
250 3 2.8489484873531449e+01 9.4124637623260448e+00 7.2484043104546858e+00 0 0 0
251 1 2.7650272094075568e+01 1.1037156887852598e+01 5.7203000369263739e+00 0 0 0
252 2 3.1249717010041891e+01 1.0868150511998333e+01 4.1575092495998538e+00 0 0 0
253 3 3.1251902812975942e+01 1.0816375274210799e+01 7.2755105364439885e+00 0 0 0
254 1 3.0421911076362147e+01 1.2444198357826890e+01 5.7419146785052169e+00 0 0 0
255 1 3.3177922552565981e+01 1.3864341919051149e+01 5.7531659098275556e+00 0 0 0
256 1 1.9127654353012552e+01 3.7307590481137209e+00 5.7113597763839241e+00 0 0 0
257 2 2.2703455650503940e+01 3.5598998951211009e+00 4.0913069880114552e+00 0 0 0
258 3 2.2760840201677652e+01 3.5429737598108626e+00 7.2087333215513958e+00 0 0 0
259 1 2.1915921080024525e+01 5.1500983441029939e+00 5.6794154416921661e+00 0 0 0
260 2 2.5506826094574659e+01 4.9679040212705177e+00 4.0646582708840935e+00 0 0 0
261 3 2.5549173459559626e+01 4.9304304909351151e+00 7.1816171345506330e+00 0 0 0
262 1 2.4708436413256969e+01 6.5490684896202875e+00 5.6582986273007938e+00 0 0 0
263 2 2.8310908422142383e+01 6.3637012347396915e+00 4.0667445429447069e+00 0 0 0
264 3 2.8328995385888042e+01 6.3076156110736257e+00 7.1835379795630256e+00 0 0 0
265 1 2.7499208767786946e+01 7.9382101276517458e+00 5.6613906711545336e+00 0 0 0
266 2 3.1100736674560856e+01 7.7564188204615956e+00 4.0958058707288432e+00 0 0 0
267 3 3.1098332040923104e+01 7.6930795136044008e+00 7.2128911511386686e+00 0 0 0
268 1 3.0279510443138889e+01 9.3308143469506692e+00 5.6865281634644145e+00 0 0 0
269 1 2.4529894208608180e+01 3.4511050344501495e+00 5.6169376364306061e+00 0 0 0
270 2 2.8120501997353990e+01 3.2458821281938075e+00 4.0140600900422241e+00 0 0 0
271 3 2.8142872470975533e+01 3.2112497600240717e+00 7.1302918071503463e+00 0 0 0
272 1 2.7325202944055324e+01 4.8373297121428402e+00 5.6015757255447483e+00 0 0 0
273 1 3.0115294975550469e+01 6.2203390418707984e+00 5.6193973229643222e+00 0 0 0
274 5 4.2802253636133401e+01 2.5623038767796800e+01 1.0569137718147104e+01 -1 0 0
275 6 4.2779463500714641e+01 2.5624518090091215e+01 1.3685218382178297e+01 -1 0 0
276 5 3.0513820957096119e+01 1.6054091501183894e+00 1.0569137720515675e+01 -1 1 0
277 6 3.0526497152334077e+01 1.6244063222424687e+00 1.3685218384499754e+01 -1 1 0
278 5 3.7792886763128742e+01 1.9106072402105877e+01 1.0437403925405171e+01 -1 0 0
279 6 3.7749814133490439e+01 1.9078073120216484e+01 1.3555569136242674e+01 -1 0 0
280 5 4.0411545522783030e+01 2.0811952758332296e+01 1.0497430866475712e+01 -1 0 0
281 6 4.0369198162713218e+01 2.0774479233050066e+01 1.3614389730744424e+01 -1 0 0
282 5 1.3280501405977949e+01 2.2531133490631515e+01 1.0548756189277920e+01 0 0 0
283 6 1.3258130936964630e+01 2.2496501122730447e+01 1.3664987906782885e+01 0 0 0
284 4 4.1993678419555096e+01 2.4010769943072074e+01 1.2115052192696867e+01 -1 0 0
285 5 1.5858159873020666e+01 2.4256318111842123e+01 1.0569137716785589e+01 0 0 0
286 6 1.5868273809009969e+01 2.4235841612070693e+01 1.3685218380811889e+01 0 0 0
287 4 1.1252490849988079e-06 4.5108997518933766e-07 1.2135933211091773e+01 0 1 0
288 5 3.5719606372557697e+00 2.3568382497979606e-01 1.0548756192788177e+01 0 1 0
289 6 3.6131383805781696e+00 2.3362660763254603e-01 1.3664987909832286e+01 0 1 0
290 4 2.5925515232590679e+00 1.7308122878403931e+00 1.2114720855550400e+01 0 1 0
291 5 6.1604307950486188e+00 1.9450538468508098e+00 1.0495510024353987e+01 0 1 0
292 6 6.2180458462687591e+00 1.9574328853101586e+00 1.3612303460975442e+01 0 1 0
293 5 3.5280755199245490e+01 1.4316564557337680e+01 1.0381376160460315e+01 -1 0 0
294 6 3.5275823722365068e+01 1.4321366959116563e+01 1.3500601068430019e+01 -1 0 0
295 5 3.7937115509181261e+01 1.6012755728074378e+01 1.0401793506970364e+01 -1 0 0
296 6 3.7916186289810184e+01 1.5990222589986091e+01 1.3520568115264467e+01 -1 0 0
297 4 3.6938523343037232e+01 1.7500529455688529e+01 1.1968349161241528e+01 -1 0 0
298 5 1.0852497370833618e+01 1.7717803375036056e+01 1.0445332196356365e+01 0 0 0
299 6 1.0824696331740762e+01 1.7672663221774137e+01 1.3563121772624875e+01 0 0 0
300 4 3.9570808385322373e+01 1.9193314791482987e+01 1.2020749378116347e+01 -1 0 0
301 5 1.3466624149341150e+01 1.9434767641356050e+01 1.0495510015727085e+01 0 0 0
302 6 1.3448537193625423e+01 1.9378682019792304e+01 1.3612303453257921e+01 0 0 0
303 4 1.2462831786628639e+01 2.0905053568202991e+01 1.2077472272981971e+01 0 0 0
304 5 1.6057343934299432e+01 2.1159007107037976e+01 1.0529502361340134e+01 0 0 0
305 6 1.6064019163953184e+01 2.1106792659201684e+01 1.3645842626536536e+01 0 0 0
306 4 1.5065025213105347e+01 2.2631762458603625e+01 1.2114720849260715e+01 0 0 0
307 5 1.8636965360530013e+01 2.2881262880096408e+01 1.0530476589660942e+01 0 0 0
308 6 1.8672284444969492e+01 2.2844300262230895e+01 1.3646907167193792e+01 0 0 0
309 4 1.7658713238974855e+01 2.4362205920726755e+01 1.2115052192083176e+01 0 0 0
310 5 2.1220036643993165e+01 2.4591447306883992e+01 1.0497430865987379e+01 0 0 0
311 6 2.1273663350054150e+01 2.4573510171495457e+01 1.3614389729225163e+01 0 0 0
312 4 5.3890219653600928e+00 3.4060119833731062e-01 1.2077472276600803e+01 0 1 0
313 5 8.9544288170014692e+00 5.3963585936893199e-01 1.0445332198655759e+01 0 1 0
314 6 9.0074218587820489e+00 5.3812952061890351e-01 1.3563121773340757e+01 0 1 0
315 4 7.9874603948409408e+00 2.0417347954928653e+00 1.2017657335824778e+01 0 1 0
316 5 1.1567172049320416e+01 2.2102281752117507e+00 1.0395888251694384e+01 0 1 0
317 6 1.1601720801155523e+01 2.2199327446241059e+00 1.3514354814889836e+01 0 1 0
318 5 3.2758685155981979e+01 9.5166959238522519e+00 1.0428462350619014e+01 -1 0 0
319 6 3.2783749188271813e+01 9.5640756153799664e+00 1.3546586239901734e+01 -1 0 0
320 5 3.5404128802406795e+01 1.1220959190848243e+01 1.0393109480538879e+01 -1 0 0
321 6 3.5423889410422674e+01 1.1245135146484785e+01 1.3511839949883854e+01 -1 0 0
322 4 3.4431964115493756e+01 1.2732536205869243e+01 1.1944638677430889e+01 -1 0 0
323 5 8.3384668968643005e+00 1.2919120390678010e+01 1.0380634114510269e+01 0 0 0
324 6 8.3432367273884882e+00 1.2913461219045681e+01 1.3499518925956085e+01 0 0 0
325 4 3.7081145120520510e+01 1.4414939254303047e+01 1.1945197020921496e+01 -1 0 0
326 5 1.0992901096150623e+01 1.4619805276553615e+01 1.0395888249513487e+01 0 0 0
327 6 1.0984031133423757e+01 1.4585032895356646e+01 1.3514354814443138e+01 0 0 0
328 4 1.0003221306794929e+01 1.6102268884093686e+01 1.1972775727817112e+01 0 0 0
329 5 1.3627113465279651e+01 1.6329919491819677e+01 1.0430643686459492e+01 0 0 0
330 6 1.3616161832146712e+01 1.6274068780738745e+01 1.3548329640281018e+01 0 0 0
331 4 1.2636837441084610e+01 1.7804173155406236e+01 1.2017657329042404e+01 0 0 0
332 5 1.6235960729447648e+01 1.8049303738995210e+01 1.0466156836250038e+01 0 0 0
333 6 1.6238365370736787e+01 1.7985964432447442e+01 1.3583242117598161e+01 0 0 0
334 4 1.5252923744599936e+01 1.9522044238757591e+01 1.2059650668232365e+01 0 0 0
335 5 1.8826482376775800e+01 1.9770619036619060e+01 1.0482395711581201e+01 0 0 0
336 6 1.8851493910000656e+01 1.9713863053836697e+01 1.3599397708577655e+01 0 0 0
337 4 1.7854496472118655e+01 2.1248094070371533e+01 1.2077640606180262e+01 0 0 0
338 5 2.1412630377679136e+01 2.1482951577284421e+01 1.0470314672594988e+01 0 0 0
339 6 2.1455981111627640e+01 2.1441718157071460e+01 1.3587741005415467e+01 0 0 0
340 4 2.0448542731572900e+01 2.2969062908263776e+01 1.2062110360794387e+01 0 0 0
341 5 2.4006701708780597e+01 2.3176562550788709e+01 1.0437403920275157e+01 0 0 0
342 6 2.4052486114254570e+01 2.3153260193359959e+01 1.3555569129718577e+01 0 0 0
343 4 2.3042186809551168e+01 2.4672666645266396e+01 1.2020749376148860e+01 0 0 0
344 5 2.6613478199674955e+01 2.4848126718524394e+01 1.0401793503246884e+01 0 0 0
345 6 2.6643457081841177e+01 2.4841268045713246e+01 1.3520568109648895e+01 0 0 0
346 4 1.0778160757321430e+01 6.1190853271251067e-01 1.1972775726945377e+01 0 1 0
347 5 1.4367225423921424e+01 7.6176324202413481e-01 1.0380634109769757e+01 0 1 0
348 6 1.4369741498702446e+01 7.6872361799386135e-01 1.3499518919297710e+01 0 1 0
349 4 1.3382784551593696e+01 2.2776922077484607e+00 1.1937503884488473e+01 0 1 0
350 5 1.6984473403765271e+01 2.4167065461592632e+00 1.0382223059054558e+01 0 1 0
351 6 1.6958564093370327e+01 2.4348865752844286e+00 1.3500759861188588e+01 0 1 0
352 5 3.0315251058924726e+01 4.6994529028288534e+00 1.0530476598142680e+01 -1 0 0
353 6 3.0329602073297689e+01 4.7485214337049815e+00 1.3646907175904420e+01 -1 0 0
354 5 3.2914389184898162e+01 6.4189014477181985e+00 1.0482395728710294e+01 -1 0 0
355 6 3.2951035534523619e+01 6.4689400587094559e+00 1.3599397726003973e+01 -1 0 0
356 4 3.1944482950976344e+01 7.9421535822283964e+00 1.2020977064783105e+01 -1 0 0
357 5 5.8151904503427039e+00 8.1274847244286992e+00 1.0425462185662260e+01 0 0 0
358 6 5.8558284846893152e+00 8.1644227453777454e+00 1.3543330841007101e+01 0 0 0
359 4 3.4573216931146739e+01 9.6432493370251162e+00 1.1974077577658063e+01 -1 0 0
360 5 8.4630658113525463e+00 9.8250455713456244e+00 1.0382223066821332e+01 0 0 0
361 6 8.4917648368168024e+00 9.8383936800651082e+00 1.3500759870430265e+01 0 0 0
362 4 7.4928702847974069e+00 1.1330366506203285e+01 1.1942282842725248e+01 0 0 0
363 5 1.1118748278450601e+01 1.1518337305251929e+01 1.0366129446701954e+01 0 0 0
364 6 1.1129123524712778e+01 1.1504523133107076e+01 1.3484815983594913e+01 0 0 0
365 4 1.0143520346998814e+01 1.3013706746403601e+01 1.1937503886918643e+01 0 0 0