LAMMPS data file via write_data, version 30 Mar 2018, timestep = 1900

762 atoms
6 atom types

0.0000000000000000e+00 3.5115534758999999e+01 xlo xhi
0.0000000000000000e+00 3.0410945687300000e+01 ylo yhi
0.0000000000000000e+00 1.0000000000000000e+02 zlo zhi
1.7557766481300000e+01 0.0000000000000000e+00 0.0000000000000000e+00 xy xz yz

Masses

1 95.94
2 32.066
3 32.066
4 95.94
5 32.066
6 32.066

Atoms # atomic

1 2 3.3308620026586190e+01 1.0754840972671618e-01 3.9803358070362544e+00 -1 1 0
2 3 3.3328634652721647e+01 1.0888911047583957e-01 7.0968721816921949e+00 -1 1 0
3 2 9.9660111408180874e-01 1.5110623928252405e+00 3.9803366404276055e+00 0 1 0
4 3 9.8775449387578806e-01 1.4930575852557872e+00 7.0968730176226051e+00 0 1 0
5 2 4.7893925194946931e+01 2.5980083545841286e+01 4.0454098168330521e+00 -1 0 0
6 3 4.7930565235410135e+01 2.6021225196148709e+01 7.1623962895136701e+00 -1 0 0
7 2 5.0682462060747213e+01 2.7389302322176516e+01 3.9980545480085956e+00 -1 0 0
8 3 5.0699186644727980e+01 2.7422113983772537e+01 7.1146851521513819e+00 -1 0 0
9 1 4.9885850204883560e+01 2.9015309844230444e+01 5.5493766541026357e+00 -1 0 0
10 2 1.8368088534437021e+01 2.8792334997891803e+01 3.9803361163852293e+00 0 0 0
11 3 1.8356918805550237e+01 2.8808997534810072e+01 7.0968724915308217e+00 0 0 0
12 1 1.7557769019870783e+01 3.0410945435779823e+01 5.5309194017500092e+00 0 0 0
13 2 2.1170010075634373e+01 3.0197647841703944e+01 3.9980561030043029e+00 0 0 0
14 3 2.1133231052170650e+01 3.0195725669291782e+01 7.1146867171549308e+00 0 0 0
15 1 2.7884324354415018e+00 1.3959662208755037e+00 5.5490983243586331e+00 0 1 0
16 2 6.4035694930926939e+00 1.2025318855617595e+00 4.0436687444657897e+00 0 1 0
17 3 6.3531834566515011e+00 1.1858463715050402e+00 7.1607741555508504e+00 0 1 0
18 2 4.4990509251433323e+01 2.1428424808392062e+01 4.1453287761339350e+00 -1 0 0
19 3 4.5020142688282007e+01 2.1464056285317053e+01 7.2634986514486046e+00 -1 0 0
20 2 4.7740976012163834e+01 2.2852707818088419e+01 4.0927562910231670e+00 -1 0 0
21 3 4.7766498346795416e+01 2.2901362897993128e+01 7.2104303669207406e+00 -1 0 0
22 1 4.6940991214980620e+01 2.4484540204649051e+01 5.6378187305936009e+00 -1 0 0
23 2 1.5397408113412721e+01 2.4264028108025474e+01 4.0436664756091130e+00 0 0 0
24 3 1.5408150919541232e+01 2.4316006103656452e+01 7.1607718591165037e+00 0 0 0
25 1 4.9708066674419513e+01 2.5898027018067683e+01 5.5824176973853747e+00 -1 0 0
26 2 1.8188156570503683e+01 2.5668042817477950e+01 4.0141462194484756e+00 0 0 0
27 3 1.8175259903619885e+01 2.5712295169701889e+01 7.1309028609661196e+00 0 0 0
28 1 1.7372496297436779e+01 2.7298111066718725e+01 5.5490970200111045e+00 0 0 0
29 2 2.0987967343152526e+01 2.7072947619397610e+01 4.0150431348395887e+00 0 0 0
30 3 2.0950141859587674e+01 2.7101560634484724e+01 7.1317354322036595e+00 0 0 0
31 1 2.0160151782878955e+01 2.8694757797280523e+01 5.5493777667040911e+00 0 0 0
32 2 2.3784697636437325e+01 2.8487314086040890e+01 4.0454119701106315e+00 0 0 0
33 3 2.3730747481002467e+01 2.8498474159957240e+01 7.1623984653673682e+00 0 0 0
34 1 2.2948689558230534e+01 3.0099434668181122e+01 5.5824198039591639e+00 0 0 0
35 2 2.6569558488391529e+01 2.9918544838068190e+01 4.0927586300441376e+00 0 0 0
36 3 2.6514661032360657e+01 2.9916320194980351e+01 7.2104327373632566e+00 0 0 0
37 1 8.1743407087150874e+00 1.1112154208977409e+00 5.6352345890800786e+00 0 1 0
38 2 1.1782718444274835e+01 9.5939494468225095e-01 4.1402009389049210e+00 0 1 0
39 3 1.1741008403927493e+01 9.5052881896816110e-01 7.2586243696825186e+00 0 1 0
40 1 1.0949147072042619e+01 2.5567762272886903e+00 5.6897350204574941e+00 0 1 0
41 2 1.4543471638149388e+01 2.4292288298994911e+00 4.1746702415547272e+00 0 1 0
42 3 1.4522998586419442e+01 2.4193463019745067e+00 7.2935400540776838e+00 0 1 0
43 2 4.2155126923490457e+01 1.6861604873884222e+01 4.1953543965463513e+00 -1 0 0
44 3 4.2167884122039972e+01 1.6858735350216516e+01 7.3138632198036939e+00 -1 0 0
45 2 4.4878366179586408e+01 1.8298498833771163e+01 4.1746642525824402e+00 -1 0 0
46 3 4.4893620603007335e+01 1.8318619736459063e+01 7.2932613324942146e+00 -1 0 0
47 1 4.4061093839739463e+01 1.9914001007927364e+01 5.7296245703772071e+00 -1 0 0
48 2 1.2497269127134034e+01 1.9727117229042356e+01 4.1401990558924266e+00 0 0 0
49 3 1.2510446125081625e+01 1.9767672946479312e+01 7.2586224647815598e+00 0 0 0
50 1 4.6797887355503875e+01 2.1353133379682880e+01 5.6846420361546919e+00 -1 0 0
51 2 1.5250943859125623e+01 2.1144549871854100e+01 4.1004747955587719e+00 0 0 0
52 3 1.5254880459997127e+01 2.1198304201250934e+01 7.2184162681306505e+00 0 0 0
53 1 1.4432939487419761e+01 2.2776153629691819e+01 5.6352321709615838e+00 0 0 0
54 2 1.8026062520169297e+01 2.2553239182052149e+01 4.0686550859224093e+00 0 0 0
55 3 1.8012724374730876e+01 2.2609163159658159e+01 7.1860702433479213e+00 0 0 0
56 1 1.7199921945727812e+01 2.4184507320196577e+01 5.5963870852849738e+00 0 0 0
57 2 2.0816943526506840e+01 2.3959861819611191e+01 4.0576959849602199e+00 0 0 0
58 3 2.0782254161405156e+01 2.4007084967340756e+01 7.1748120260284667e+00 0 0 0
59 1 1.9980500365721539e+01 2.5585536613688440e+01 5.5823269020912702e+00 0 0 0
60 2 2.3612277009022669e+01 2.5372963927977093e+01 4.0726148039961920e+00 0 0 0
61 3 2.3560718495406341e+01 2.5405319684687008e+01 7.1897773080017995e+00 0 0 0
62 1 2.2768262627045083e+01 2.6990227815565401e+01 5.5984960320478141e+00 0 0 0
63 2 2.6401133813801174e+01 2.6800785807222447e+01 4.1066591005912194e+00 0 0 0
64 3 2.6345233458927680e+01 2.6818547821485868e+01 7.2242409753243209e+00 0 0 0
65 1 2.5556342943018116e+01 2.8409821215096088e+01 5.6378210646866185e+00 0 0 0
66 2 2.9178257037674044e+01 2.8248713082224288e+01 4.1453306338049307e+00 0 0 0
67 3 2.9132583270140756e+01 2.8256560569589290e+01 7.2635005291042516e+00 0 0 0
68 1 2.8339772497997707e+01 2.9851593965737543e+01 5.6846441583496441e+00 0 0 0
69 2 3.1944923612653032e+01 2.9716557960626027e+01 4.1746653521193036e+00 0 0 0
70 3 3.1919872199453554e+01 2.9719708321492224e+01 7.2932624380573481e+00 0 0 0
71 1 1.3558826093768563e+01 9.0439366779132291e-01 5.7234242985201842e+00 0 1 0
72 2 1.7148353772256609e+01 7.8661294390271175e-01 4.1866669003606010e+00 0 1 0
73 3 1.7148202182678176e+01 7.8801522161283200e-01 7.3054325748419409e+00 0 1 0
74 1 1.6330133943730466e+01 2.3821241770005814e+00 5.7449964277048178e+00 0 1 0
75 2 1.9909958771439243e+01 2.2693878674295109e+00 4.1795523247033399e+00 0 1 0
76 3 1.9933849760537129e+01 2.2689036455944511e+00 7.2983168884602794e+00 0 1 0
77 2 3.9331240421478981e+01 1.2300294575034867e+01 4.1642041579977542e+00 -1 0 0
78 3 3.9329357037037049e+01 1.2255241773349738e+01 7.2823537447219948e+00 -1 0 0
79 2 4.2059322121047423e+01 1.3730897709366237e+01 4.1831858661646946e+00 -1 0 0
80 3 4.2058594168313910e+01 1.3706396602261394e+01 7.3016930576283601e+00 -1 0 0
81 1 4.1227502579680205e+01 1.5322961392406915e+01 5.7536656670144950e+00 -1 0 0
82 2 9.6648170158751920e+00 1.5166732076337958e+01 4.1866667489041758e+00 0 0 0
83 3 9.6661076427280008e+00 1.5166163232096929e+01 7.3054324271686450e+00 0 0 0
84 1 4.3951637013299035e+01 1.6771610061915897e+01 5.7464844046434722e+00 -1 0 0
85 2 1.2389805382956670e+01 1.6601317981445373e+01 4.1746691866282886e+00 0 0 0
86 3 1.2391483683883598e+01 1.6623990373406571e+01 7.2935389932829056e+00 0 0 0
87 1 1.1561582499503684e+01 1.8216464139074027e+01 5.7234229020918672e+00 0 0 0
88 2 1.5128654408321136e+01 1.8028739878363286e+01 4.1513970987360782e+00 0 0 0
89 3 1.5126766852853310e+01 1.8070020462188232e+01 7.2700965456180597e+00 0 0 0
90 1 1.4297427778227489e+01 1.9650320644948732e+01 5.6897329733226218e+00 0 0 0
91 2 1.7887546036263789e+01 1.9447082064820634e+01 4.1258108943593816e+00 0 0 0
92 3 1.7875845941298614e+01 1.9498067716413672e+01 7.2440987506917391e+00 0 0 0
93 1 1.7049629691727247e+01 2.1070287719224968e+01 5.6557792397413378e+00 0 0 0
94 2 2.0665760221178605e+01 2.0859665435229303e+01 4.1100809967179286e+00 0 0 0
95 3 2.0638541562583782e+01 2.0909301150119099e+01 7.2279579951891204e+00 0 0 0
96 1 1.9818904249876287e+01 2.2479615782575966e+01 5.6350619510611057e+00 0 0 0
97 2 2.3454912246657933e+01 2.2273728902559998e+01 4.1133266320904793e+00 0 0 0
98 3 2.3412084463599449e+01 2.2313424321220644e+01 7.2310107743425691e+00 0 0 0
99 1 2.2600659824977072e+01 2.3887231472185707e+01 5.6373958002945592e+00 0 0 0
100 2 2.6243193884118657e+01 2.3697889931280670e+01 4.1349269664177237e+00 0 0 0
101 3 2.6192894225507054e+01 2.3725158191939169e+01 7.2526963466457133e+00 0 0 0
102 1 2.5387641872097610e+01 2.5304758401168101e+01 5.6620991958845073e+00 0 0 0
103 2 2.9022168256184916e+01 2.5139214992098982e+01 4.1643106592777208e+00 0 0 0
104 3 2.8977386882680669e+01 2.5157131562367695e+01 7.2823739427391203e+00 0 0 0
105 1 2.8173420713480759e+01 2.6741711636398449e+01 5.6978404889493621e+00 0 0 0
106 2 3.1790197469851151e+01 2.6600125840908898e+01 4.1877539927728700e+00 0 0 0
107 3 3.1762531824453575e+01 2.6613658766617675e+01 7.3061117280458383e+00 0 0 0
108 1 3.0954494566541346e+01 2.8201028100825312e+01 5.7296259581524529e+00 0 0 0
109 2 3.4550929866759489e+01 2.8076610769786036e+01 4.1953545473291607e+00 0 0 0
110 3 3.4547037442465907e+01 2.8089093708691063e+01 7.3138633677459639e+00 0 0 0
111 1 3.3730613158147975e+01 2.9677431594101410e+01 5.7464848852071366e+00 0 0 0
112 2 3.7310104144726139e+01 2.9558994809618937e+01 4.1831850455425048e+00 0 0 0
113 3 3.7331687764675564e+01 2.9570615046771994e+01 7.3016922270865896e+00 0 0 0
114 1 1.8946209405491061e+01 7.4851950190962468e-01 5.7440084085635883e+00 0 1 0
115 2 2.2516068425650833e+01 6.2418134729755925e-01 4.1525127542662164e+00 0 1 0
116 3 2.2559832016932152e+01 6.3203626344662234e-01 7.2708167150893592e+00 0 1 0
117 1 2.1720155662287763e+01 2.2226238277624621e+00 5.7231344039572187e+00 0 1 0
118 2 2.5289890115264761e+01 2.0840417364147457e+00 4.1100804758967113e+00 0 1 0
119 3 2.5346485261080471e+01 2.0827952156581393e+00 7.2279574746216673e+00 0 1 0
120 2 3.9214000932609551e+01 9.1756846353009038e+00 4.1133276351814683e+00 -1 0 0
121 3 3.9201037120227937e+01 9.1187473515716491e+00 7.2310117973251558e+00 -1 0 0
122 1 3.8380323304515791e+01 1.0751845471508767e+01 5.6964793464570542e+00 -1 0 0
123 2 6.8402906193276163e+00 1.0599370402875140e+01 4.1525144206949944e+00 0 0 0
124 3 6.8252118138461046e+00 1.0557543261177223e+01 7.2708184021274160e+00 0 0 0
125 1 4.1120852675082190e+01 1.2184442398044032e+01 5.7268662624890059e+00 -1 0 0
126 2 9.5681355268932311e+00 1.2033724501083396e+01 4.1795530992249450e+00 0 0 0
127 3 9.5557711372127532e+00 1.2013277297899108e+01 7.2983176730696782e+00 0 0 0
128 1 8.7328996991215675e+00 1.3628790557379075e+01 5.7440089062787347e+00 0 0 0
129 2 1.2292337733661235e+01 1.3474166940076646e+01 4.1903242392194864e+00 0 0 0
130 3 1.2283882866864591e+01 1.3476267887779789e+01 7.3093483717584551e+00 0 0 0
131 1 1.1455680425202445e+01 1.5077575946763613e+01 5.7449959670233923e+00 0 0 0
132 2 1.5023534003903819e+01 1.4913307403900347e+01 4.1857472793343344e+00 0 0 0
133 3 1.5017410459311707e+01 1.4935241831555969e+01 7.3048369972865155e+00 0 0 0
134 1 1.4183289701398014e+01 1.6522057636445627e+01 5.7315135898582925e+00 0 0 0
135 2 1.7770259156668310e+01 1.6345134513465840e+01 4.1711872619959678e+00 0 0 0
136 3 1.7762049023454736e+01 1.6380491422017375e+01 7.2901107802127694e+00 0 0 0
137 1 1.6923837873671701e+01 1.7955581069210560e+01 5.7095861423781553e+00 0 0 0
138 2 2.0536073219204301e+01 1.7768424554172110e+01 4.1564804165747784e+00 0 0 0
139 3 2.0519592480279009e+01 1.7807720594309671e+01 7.2750827764706107e+00 0 0 0
140 1 1.9681406209389124e+01 1.9376681293119564e+01 5.6898545612747693e+00 0 0 0
141 2 2.3316947469844397e+01 1.9187396051100055e+01 4.1525134815627132e+00 0 0 0
142 3 2.3288262837038829e+01 1.9221368403680845e+01 7.2708174420447396e+00 0 0 0
143 1 2.2454483319058202e+01 2.0790546174681324e+01 5.6838114882992832e+00 0 0 0
144 2 2.6102283476071452e+01 2.0609891338783747e+01 4.1642037211395886e+00 0 0 0
145 3 2.6064207767805691e+01 2.0634048865658123e+01 7.2823532940289519e+00 0 0 0
146 1 2.5236746036994838e+01 2.2207634553090831e+01 5.6964786930494986e+00 0 0 0
147 2 2.8881120003683392e+01 2.2044130715513585e+01 4.1861226060047461e+00 0 0 0
148 3 2.8843226674151104e+01 2.2060405319075077e+01 7.3042695892444662e+00 0 0 0
149 1 2.8020612464162660e+01 2.3639126037424660e+01 5.7219711093805552e+00 0 0 0
150 2 3.1648304334504111e+01 2.3495134982283609e+01 4.2060434968055542e+00 0 0 0
151 3 3.1621960776308754e+01 2.3508888923274835e+01 7.3242715375926624e+00 0 0 0
152 1 3.0800805302520530e+01 2.5091235926060676e+01 5.7472632105770094e+00 0 0 0
153 2 3.4405407676344332e+01 2.4962091496909480e+01 4.2124102066481859e+00 0 0 0
154 3 3.4398938994915511e+01 2.4977941255077720e+01 7.3307230323927675e+00 0 0 0
155 1 3.3575786869271397e+01 2.6562113910360964e+01 5.7600776786180337e+00 0 0 0
156 2 3.7158009328679952e+01 2.6437975926629388e+01 4.1987890858998078e+00 0 0 0
157 3 3.7175196699554746e+01 2.6457368492093597e+01 7.3171138959248525e+00 0 0 0
158 1 3.6347246890231787e+01 2.8042586157297240e+01 5.7536651649663231e+00 0 0 0
159 2 3.9913083640812829e+01 2.7911707640957491e+01 4.1642024720769495e+00 0 0 0
160 3 3.9953043037146216e+01 2.7932603117206796e+01 7.2823520412953480e+00 0 0 0
161 1 3.9118608960806910e+01 2.9519483592940198e+01 5.7268648168869047e+00 0 0 0
162 2 4.2677695306160018e+01 2.9372479347870286e+01 4.1133253309467488e+00 0 0 0
163 3 4.2733486734849571e+01 2.9389720971077853e+01 7.2310094648092518e+00 0 0 0
164 1 2.4335669429661902e+01 5.6952154460261983e-01 5.6838106058747497e+00 0 1 0
165 2 2.7899147590397256e+01 4.0301476511962492e-01 4.0576950592903085e+00 0 1 0
166 3 2.7957388652940523e+01 4.0944412181073853e-01 7.1748110956911919e+00 0 1 0
167 1 2.7116236297528488e+01 2.0074646058715331e+00 5.6350614783024664e+00 0 1 0
168 2 3.0692869481715356e+01 1.8255202401314345e+00 4.0141461344115523e+00 0 1 0
169 3 3.0737641078864044e+01 1.8145617552245772e+00 7.1309027779320644e+00 0 1 0
170 2 3.6291229268375623e+01 4.6396378208184643e+00 4.0150437796743699e+00 -1 0 0
171 3 3.6285361303744168e+01 4.5925733050019577e+00 7.1317360819137630e+00 -1 0 0
172 2 3.9572171575385084e+00 6.0480699638944149e+00 4.0576974129264887e+00 0 0 0
173 3 3.9336646910744921e+00 5.9944166908893362e+00 7.1748134749073111e+00 0 0 0
174 1 3.8243793160983259e+01 7.6291289248180503e+00 5.6373968734146960e+00 -1 0 0
175 2 6.7176569549947311e+00 7.4672400450457159e+00 4.1100826163513542e+00 0 0 0
176 3 6.6882802460478956e+00 7.4188506322084589e+00 7.2279596437595988e+00 0 0 0
177 1 5.8831542499496159e+00 9.0508795442975529e+00 5.6838127386305262e+00 0 0 0
178 2 9.4595931375865252e+00 8.9005488026354858e+00 4.1564817570771648e+00 0 0 0
179 3 9.4338022210178494e+00 8.8666286930497691e+00 7.2750841396405086e+00 0 0 0
180 1 8.6225389576444478e+00 1.0489430202398538e+01 5.7231357638156908e+00 0 0 0
181 2 1.2191378200488380e+01 1.0345919138938456e+01 4.1874553796067433e+00 0 0 0
182 3 1.2173682562251134e+01 1.0330514818258147e+01 7.3064888986718133e+00 0 0 0
183 1 1.1352057122059378e+01 1.1939953130150291e+01 5.7471315337138318e+00 0 0 0
184 2 1.4923253225716904e+01 1.1796227099302582e+01 4.2004145942452507e+00 0 0 0
185 3 1.4913974677489737e+01 1.1798794543411708e+01 7.3196274706042157e+00 0 0 0
186 1 1.4080285356271961e+01 1.3393506038347763e+01 5.7540034629477690e+00 0 0 0
187 2 1.7664669254250789e+01 1.3242780692769269e+01 4.1979779204788716e+00 0 0 0
188 3 1.7660753402606460e+01 1.3259220265979192e+01 7.3171884117575230e+00 0 0 0
189 1 1.6816033488251158e+01 1.4840683143420279e+01 5.7466847265254861e+00 0 0 0
190 2 2.0421907710889940e+01 1.4679944249364453e+01 4.1874545486314432e+00 0 0 0
191 3 2.0417414587702545e+01 1.4702971815996296e+01 7.3064880553434577e+00 0 0 0
192 1 1.9565599271621352e+01 1.6275627544494572e+01 5.7327330250411475e+00 0 0 0
193 2 2.3195211691555723e+01 1.6107835932920619e+01 4.1795524806107158e+00 0 0 0
194 3 2.3183685423155310e+01 1.6128767734241443e+01 7.2983170388907670e+00 0 0 0
195 1 2.2330611728961404e+01 1.7698894008259114e+01 5.7231347479058678e+00 0 0 0
196 2 2.5977180937763684e+01 1.7532001406238315e+01 4.1831856919812909e+00 0 0 0
197 3 2.5956325651436714e+01 1.7544882616028644e+01 7.3016928695765442e+00 0 0 0
198 1 2.5107146071865657e+01 1.9117967735239777e+01 5.7268657255425763e+00 0 0 0
199 2 2.8756109570087986e+01 1.8960793114567856e+01 4.1987900271073517e+00 0 0 0
200 3 2.8730721665520161e+01 1.8965981049638032e+01 7.3171148346605301e+00 0 0 0
201 1 2.7887552844035874e+01 2.0544299300477526e+01 5.7440772581353947e+00 0 0 0
202 2 3.1523241254575900e+01 2.0401324386317349e+01 4.2173482297447018e+00 0 0 0
203 3 3.1502846307444820e+01 2.0404489163230810e+01 7.3355822819967749e+00 0 0 0
204 1 3.0664776880382554e+01 2.1987141459092438e+01 5.7652079669416949e+00 0 0 0
205 2 3.4277018984899655e+01 2.1856073548361501e+01 4.2265642609376126e+00 0 0 0
206 3 3.4270669598649341e+01 2.1863748696071958e+01 7.3447827481838228e+00 0 0 0
207 1 3.3435497164524769e+01 2.3448637513657143e+01 5.7775128915967962e+00 0 0 0
208 2 3.7021979504826909e+01 2.3321303582363143e+01 4.2173474471106482e+00 0 0 0
209 3 3.7034918204767756e+01 2.3337384150590719e+01 7.3355815006978728e+00 0 0 0
210 1 3.6200540260640132e+01 2.4922898545054785e+01 5.7716868474091916e+00 0 0 0
211 2 3.9765752428654821e+01 2.4788044725725541e+01 4.1861212499381679e+00 0 0 0
212 3 3.9798793853508876e+01 2.4812724201328983e+01 7.3042682283591942e+00 0 0 0
213 1 3.8963644530251202e+01 2.6398415032956883e+01 5.7440760199120051e+00 0 0 0
214 2 4.2516913499360115e+01 2.6245676051969365e+01 4.1349251971183172e+00 0 0 0
215 3 4.2565678801642264e+01 2.6275602540719440e+01 7.2526945625336232e+00 0 0 0
216 1 4.1729538842232969e+01 2.7862413111671472e+01 5.6964771842316893e+00 0 0 0
217 2 4.5283029217303351e+01 2.7686579633198672e+01 4.0726130000012573e+00 0 0 0
218 3 4.5336829578764835e+01 2.7715052125447812e+01 7.1897754872806336e+00 0 0 0
219 1 4.4502155907812927e+01 2.9305531746292601e+01 5.6373943892088043e+00 0 0 0
220 2 4.8067413685443597e+01 2.9109306348268525e+01 4.0150418379780195e+00 0 0 0
221 3 4.8111105857008958e+01 2.9127756628225033e+01 7.1317341278196862e+00 0 0 0
222 1 2.9725244829353493e+01 3.1455763054632646e-01 5.5823260935171417e+00 0 1 0
223 1 3.2512379924345076e+01 1.7168678815225404e+00 5.5490972354988193e+00 0 1 0
224 1 3.5300607914769898e+01 3.1118232158121222e+00 5.5493779845272213e+00 -1 0 0
225 2 3.7922830185155521e+00 2.9173830440780071e+00 4.0141478368454342e+00 0 0 0
226 3 3.7604067966212007e+00 2.8840879659780958e+00 7.1309044939103821e+00 0 0 0
227 1 2.9675630915408235e+00 4.5108513805343922e+00 5.5823282060215309e+00 0 0 0
228 2 6.5708284550133582e+00 4.3344078331328912e+00 4.0686571768861288e+00 0 0 0
229 3 6.5290656385722849e+00 4.2948949041028364e+00 7.1860723655076733e+00 0 0 0
230 1 5.7381670559691962e+00 5.9238660597201260e+00 5.6350637640353893e+00 0 0 0
231 2 9.3300971037532996e+00 5.7675283054485718e+00 4.1258128165588150e+00 0 0 0
232 3 9.2917924819622773e+00 5.7319033546650404e+00 7.2441007031023021e+00 0 0 0
233 1 8.4941357612308970e+00 7.3562572353157556e+00 5.6898562755477444e+00 0 0 0
234 2 1.2075105659279057e+01 7.2169292932033819e+00 4.1711886068348978e+00 0 0 0
235 3 1.2048591235480000e+01 7.1921411687544854e+00 7.2901121415527310e+00 0 0 0
236 1 1.1237630332677444e+01 8.8064929351291834e+00 5.7327342546174629e+00 0 0 0
237 2 1.4814617914768217e+01 8.6766629881613095e+00 4.1979785548197421e+00 0 0 0
238 3 1.4802339337151416e+01 8.6650523981703156e+00 7.3171890514603790e+00 0 0 0
239 1 1.3974867155699121e+01 1.0266674618147318e+01 5.7573719603378635e+00 0 0 0
240 2 1.7557768440353069e+01 1.0136982963118889e+01 4.2060754263950946e+00 0 0 0
241 3 1.7557768639614775e+01 1.0136983223462579e+01 7.3253501561278176e+00 0 0 0
242 1 1.6713782728631280e+01 1.1725979890316172e+01 5.7639073392507933e+00 0 0 0
243 2 2.0311973765508959e+01 1.1588917383810273e+01 4.2004142974917418e+00 0 0 0
244 3 2.0318836263277408e+01 1.1595669608434905e+01 7.3196271688968668e+00 0 0 0
245 1 1.9461535124171974e+01 1.3175020236375822e+01 5.7573713426045172e+00 0 0 0
246 2 2.3080570268670865e+01 1.3028386546880343e+01 4.1903240100265515e+00 0 0 0
247 3 2.3086616608218158e+01 1.3034658540853757e+01 7.3093481329565044e+00 0 0 0
248 1 2.2222042030938958e+01 1.4609800511811557e+01 5.7471309384055900e+00 0 0 0
249 2 2.5860135105830892e+01 1.4457603353466563e+01 4.1866669052512275e+00 0 0 0
250 3 2.5858996432017157e+01 1.4456770298486072e+01 7.3054325721962190e+00 0 0 0
251 1 2.4994197012072455e+01 1.6033638364931573e+01 5.7440086790301823e+00 0 0 0
252 2 2.8640550190432371e+01 1.5883678413875570e+01 4.1953549768671428e+00 0 0 0
253 3 2.8631685899560814e+01 1.5874065423988208e+01 7.3138637903934223e+00 0 0 0
254 1 2.7771857922368479e+01 1.7456346678943991e+01 5.7536658698465573e+00 0 0 0
255 2 3.1410563472894722e+01 1.7314912306440135e+01 4.2124107564981612e+00 0 0 0
256 3 3.1400071828205085e+01 1.7301385085333180e+01 7.3307235778065944e+00 0 0 0
257 1 3.0546939625408054e+01 1.8889139223524364e+01 5.7716876458565904e+00 0 0 0
258 2 3.4164647542586465e+01 1.8756733644114895e+01 4.2265644885067877e+00 0 0 0
259 3 3.4161175914307421e+01 1.8747397378224456e+01 7.3447829748064661e+00 0 0 0
260 1 3.3313932031675108e+01 2.0338276398347311e+01 5.7864238994509876e+00 0 0 0
261 2 3.6904939789915225e+01 2.0209087152946331e+01 4.2265640692696698e+00 0 0 0
262 3 3.6914761681371324e+01 2.0210749059160950e+01 7.3447825571733114e+00 0 0 0
263 1 3.6072033012214561e+01 2.1802044032775100e+01 5.7864234791058795e+00 0 0 0
264 2 3.9638766057572511e+01 2.1666090415170771e+01 4.2060425520806364e+00 0 0 0
265 3 3.9663849580422109e+01 2.1682028286255242e+01 7.3242705904938958e+00 0 0 0
266 1 3.8824569769758966e+01 2.3271847393232772e+01 5.7652068930474059e+00 0 0 0
267 2 4.2375649571757805e+01 2.3118350983263916e+01 4.1643089902012198e+00 0 0 0
268 3 4.2413556978594656e+01 2.3148174907138010e+01 7.2823722599250438e+00 0 0 0
269 1 4.1577312950827029e+01 2.4735768515226713e+01 5.7219694361009807e+00 0 0 0
270 2 4.5125130005500736e+01 2.4557447771579589e+01 4.1066569473285259e+00 0 0 0
271 3 4.5168462908457400e+01 2.4596977888319458e+01 7.2242387969109974e+00 0 0 0
272 1 4.4336278689136364e+01 2.6183171308934799e+01 5.6620971882179605e+00 0 0 0
273 1 4.7105628153191972e+01 2.7608885019928515e+01 5.5984941845158520e+00 0 0 0
274 1 5.5711792749924296e+00 2.8033149111835023e+00 5.5963891952399178e+00 0 0 0
275 2 9.1783484198199776e+00 2.6354300151610199e+00 4.1004770650982030e+00 0 0 0
276 3 9.1298277630999838e+00 2.6119622305633889e+00 7.2184185709898934e+00 0 0 0
277 1 8.3433183416136281e+00 4.2302686357612691e+00 5.6557814490739542e+00 0 0 0
278 2 1.1937863358819886e+01 4.0874300049158157e+00 4.1513988100401198e+00 0 0 0
279 3 1.1903057765361451e+01 4.0651553757432568e+00 7.2700982773730622e+00 0 0 0
280 1 1.1103629066056673e+01 5.6786838325614273e+00 5.7095878803092779e+00 0 0 0
281 2 1.4688467142633753e+01 5.5541097869431919e+00 4.1857481768206268e+00 0 0 0
282 3 1.4672533960070044e+01 5.5378397659567025e+00 7.3048379004534816e+00 0 0 0
283 1 1.3855111921759189e+01 7.1427719119012343e+00 5.7466857247375058e+00 0 0 0
284 2 1.7438078471262319e+01 7.0258042877559657e+00 4.2004146770110626e+00 0 0 0
285 3 1.7440495060369866e+01 7.0164853203097470e+00 7.3196275523367316e+00 0 0 0
286 1 1.6603649614093634e+01 8.6115717733169141e+00 5.7639075880571164e+00 0 0 0
287 2 2.0194018332895002e+01 8.4915050444864484e+00 4.1979780087051157e+00 0 0 0
288 3 2.0210213294041427e+01 8.4866767565993175e+00 7.3171885008272115e+00 0 0 0
289 1 1.9355873091043186e+01 1.0073397328307037e+01 5.7639072643213938e+00 0 0 0
290 2 2.2961304642088162e+01 9.9435312867459906e+00 4.1857473613135658e+00 0 0 0
291 3 2.2983361786559385e+01 9.9378674240106974e+00 7.3048370766777300e+00 0 0 0
292 1 2.2116741781438087e+01 1.1520309250516867e+01 5.7540032954131846e+00 0 0 0
293 2 2.5740029063193607e+01 1.1380401408250250e+01 4.1746696030540154e+00 0 0 0
294 3 2.5758824106117196e+01 1.1367611890331032e+01 7.2935394047972464e+00 0 0 0
295 1 2.4887491620022494e+01 1.2951248373621773e+01 5.7449960690375628e+00 0 0 0
296 2 2.8523317579387260e+01 1.2806836997509734e+01 4.1746651804302886e+00 0 0 0
297 3 2.8533114870002471e+01 1.2783566001117373e+01 7.2932622551410500e+00 0 0 0
298 1 2.7664357230891270e+01 1.4372852474740302e+01 5.7464849759684915e+00 0 0 0
299 2 3.1299589546190099e+01 1.4231056201489569e+01 4.1877542099294365e+00 0 0 0
300 3 3.1301702509453492e+01 1.4200330149696683e+01 7.3061119369916803e+00 0 0 0
301 1 3.0439714358824254e+01 1.5796427941205165e+01 5.7600781044456157e+00 0 0 0
302 2 3.4059536330445503e+01 1.5660668665203559e+01 4.2060437301135360e+00 0 0 0
303 3 3.4060797067048448e+01 1.5630977438862672e+01 7.3242717687709931e+00 0 0 0
304 1 3.3206208331742218e+01 1.7231672034025816e+01 5.7775132500479636e+00 0 0 0
305 2 3.6801385742317784e+01 1.7099266257587075e+01 4.2173480911781507e+00 0 0 0
306 3 3.6808842783673448e+01 1.7080021606872034e+01 7.3355821466009701e+00 0 0 0
307 1 3.5960642034336772e+01 1.8681574383028309e+01 5.7864237826943610e+00 0 0 0
308 2 3.9530635468098900e+01 1.8544890390708300e+01 4.2124100459210592e+00 0 0 0
309 3 3.9547596504151407e+01 1.8542568473660126e+01 7.3307228729871348e+00 0 0 0
310 1 3.8704901688724206e+01 2.0141585096240224e+01 5.7775124432350067e+00 0 0 0
311 2 4.2256820089210791e+01 1.9990711825720304e+01 4.1877529393093589e+00 0 0 0
312 3 4.2282373252000419e+01 2.0007905335739952e+01 7.3061106692938385e+00 0 0 0
313 1 4.1444779788387294e+01 2.1601996040924842e+01 5.7472619391236446e+00 0 0 0
314 1 4.4187826442676112e+01 2.3052139688371568e+01 5.6978385065643957e+00 0 0 0
315 1 1.3715371185711072e+01 4.0220618878480412e+00 5.7315148578846280e+00 0 0 0
316 2 1.7300397740742291e+01 3.9083950533818514e+00 4.1903243744383039e+00 0 0 0
317 3 1.7302806682478991e+01 3.9000226284738311e+00 7.3093485041113375e+00 0 0 0
318 1 1.6476278541676898e+01 5.4971334623928385e+00 5.7540038472707398e+00 0 0 0
319 2 2.0060019844968362e+01 5.3850851199858383e+00 4.1874547033138132e+00 0 0 0
320 3 2.0082209033414340e+01 5.3774624237486428e+00 7.3064882149797592e+00 0 0 0
321 1 1.9236903299536678e+01 6.9692539828816242e+00 5.7573715665156406e+00 0 0 0
322 2 2.2827941249388868e+01 6.8488844105689335e+00 4.1711874128975168e+00 0 0 0
323 3 2.2862666129017779e+01 6.8383160608007110e+00 7.2901109347199480e+00 0 0 0
324 1 2.2002160362057435e+01 8.4274935513406390e+00 5.7466848347681028e+00 0 0 0
325 2 2.5606788721525078e+01 8.2947779752312716e+00 4.1513975652492823e+00 0 0 0
326 3 2.5643482014440156e+01 8.2757722333717041e+00 7.2700970157827758e+00 0 0 0
327 1 2.4774645225761063e+01 9.8668287361072338e+00 5.7315139097976662e+00 0 0 0
328 2 2.8393319183146620e+01 9.7244354436907727e+00 4.1402001106322324e+00 0 0 0
329 3 2.8421852257416798e+01 9.6927458780615190e+00 7.2586235239630330e+00 0 0 0
330 1 2.7552897805379644e+01 1.1290090227936778e+01 5.7234237209657968e+00 0 0 0
331 2 3.1177841619128678e+01 1.1144755397391027e+01 4.1453304078022084e+00 0 0 0
332 3 3.1193882060927898e+01 1.1101276456461342e+01 7.2635002894020788e+00 0 0 0
333 1 3.0331019303370031e+01 1.2706864664386320e+01 5.7296258985797399e+00 0 0 0
334 2 3.3948789697644770e+01 1.2564327510748182e+01 4.1643108291473068e+00 0 0 0
335 3 3.3955664005577155e+01 1.2516587219691825e+01 7.2823741082011377e+00 0 0 0
336 1 3.3101022474497519e+01 1.4128662098496520e+01 5.7472634332626402e+00 0 0 0
337 2 3.6699734671338085e+01 1.3989718348163287e+01 4.1861227682035249e+00 0 0 0
338 3 3.6704587117334576e+01 1.3948764678205890e+01 7.3042697561117027e+00 0 0 0
339 1 3.5857260701800591e+01 1.5562905547060600e+01 5.7652080543414490e+00 0 0 0
340 2 3.9432487988854760e+01 1.5423124991967134e+01 4.1987898683298379e+00 0 0 0
341 3 3.9440689104706216e+01 1.5398544981729696e+01 7.3171146848595132e+00 0 0 0
342 1 3.8599127357153314e+01 1.7009856770662221e+01 5.7716872862832975e+00 0 0 0
343 1 4.1331106126204041e+01 1.8463352482734440e+01 5.7600772098620157e+00 0 0 0
344 1 1.9099206721432957e+01 3.8611949284670146e+00 5.7471310806928972e+00 0 0 0
345 2 2.2677640034811436e+01 3.7419745834927269e+00 4.1564802691338940e+00 0 0 0
346 3 2.2719911876270011e+01 3.7365988970875006e+00 7.2750826333190064e+00 0 0 0
347 1 2.1870076450744801e+01 5.3288278132820652e+00 5.7327330911453798e+00 0 0 0
348 2 2.5455663830121676e+01 5.1963370971638412e+00 4.1258110511797517e+00 0 0 0
349 3 2.5505668477020670e+01 5.1809763805728375e+00 7.2440989136096441e+00 0 0 0
350 1 2.4645839489061185e+01 6.7766829314143102e+00 5.7095864106408367e+00 0 0 0
351 2 2.8244015196395992e+01 6.6309671977422475e+00 4.1004755938228596e+00 0 0 0
352 3 2.8288598929055201e+01 6.6006803537019234e+00 7.2184170763560127e+00 0 0 0
353 1 2.7426731960946860e+01 8.2038505560038928e+00 5.6897337719973251e+00 0 0 0
354 2 3.1036074381091968e+01 8.0506399664439634e+00 4.0927578828306332e+00 0 0 0
355 3 3.1065449105448259e+01 8.0042090944962254e+00 7.2104319719967114e+00 0 0 0
356 1 3.0208948397104152e+01 9.6171656280703779e+00 5.6846435220086882e+00 0 0 0
357 2 3.3820344795877936e+01 9.4636591730393214e+00 4.1066591111995718e+00 0 0 0
358 3 3.3832912026003655e+01 9.4063667140506126e+00 7.2242409789023796e+00 0 0 0
359 1 3.2985361021519687e+01 1.1028041841078382e+01 5.6978404737004835e+00 0 0 0
360 2 3.6586500691789041e+01 1.0878327122391244e+01 4.1349274012835862e+00 0 0 0
361 3 3.6588035125858084e+01 1.0821132316307393e+01 7.2526967883487643e+00 0 0 0
362 1 3.5748682488258062e+01 1.2446999031637178e+01 5.7219713761859063e+00 0 0 0
363 1 3.8495410215503512e+01 1.3879179675685613e+01 5.7440774029750159e+00 0 0 0
364 1 2.4497764816288090e+01 3.6780088994479692e+00 5.6898543927833209e+00 0 0 0
365 2 2.8076417088997918e+01 3.5232996771766190e+00 4.0686551661869670e+00 0 0 0
366 3 2.8131517397940499e+01 3.5068880099879238e+00 7.1860703289737993e+00 0 0 0