LAMMPS data file via write_data, version 30 Mar 2018, timestep = 1077

546 atoms
6 atom types

0.0000000000000000e+00 2.9724743224600001e+01 xlo xhi
0.0000000000000000e+00 2.5742382354699998e+01 ylo yhi
0.0000000000000000e+00 1.0000000000000000e+02 zlo zhi
1.4862372303000001e+01 0.0000000000000000e+00 0.0000000000000000e+00 xy xz yz

Masses

1 95.94
2 32.066
3 32.066
4 95.94
5 32.066
6 32.066

Atoms # atomic

1 2 2.7917092896591043e+01 1.1786470170547508e-01 3.9938289409988581e+00 -1 1 0
2 3 2.7939882028277538e+01 1.1934304362940100e-01 7.1099096022559749e+00 -1 1 0
3 2 1.0059031954888358e+00 1.5065411301871909e+00 3.9938304392064863e+00 0 1 0
4 3 9.9578828129843600e-01 1.4860636908559361e+00 7.1099111072572256e+00 0 1 0
5 2 3.9782908538265914e+01 2.1336114304519068e+01 4.0667422203958798e+00 -1 0 0
6 3 3.9822436324264913e+01 2.1379820770237266e+01 7.1835356259239358e+00 -1 0 0
7 2 4.2578223120261008e+01 2.2730126804447110e+01 4.0140585571375542e+00 -1 0 0
8 3 4.2597029545409612e+01 2.2766815747652387e+01 7.1302902610774446e+00 -1 0 0
9 1 4.1791915387767830e+01 2.4362573534112489e+01 5.5643256882074281e+00 -1 0 0
10 2 1.5664127837134744e+01 2.4117976371917244e+01 3.9938294697463141e+00 0 0 0
11 3 1.5651450616896554e+01 2.4136972607574339e+01 7.1099101324746510e+00 0 0 0
12 1 1.4862374614751049e+01 2.5742381824767413e+01 5.5431147879980633e+00 0 0 0
13 2 1.8475512119126837e+01 2.5508756333218162e+01 4.0140613111200771e+00 0 0 0
14 3 1.8434333695767315e+01 2.5506698216789179e+01 7.1302930415475956e+00 0 0 0
15 1 2.7963420807497017e+00 1.3801765886283499e+00 5.5639972268159470e+00 0 1 0
16 2 6.4112919041148091e+00 1.1688732736159644e+00 4.0646602393651889e+00 0 1 0
17 3 6.3576651882470214e+00 1.1509355774802532e+00 7.1816191398454796e+00 0 1 0
18 2 9.1901140442237743e+00 2.5891238504089058e+00 4.1234807489857159e+00 0 1 0
19 3 9.1443302419365420e+00 2.5658213737915534e+00 7.2416460022067923e+00 0 1 0
20 2 3.6863737811976677e+01 1.6804965367710047e+01 4.1646916798348581e+00 -1 0 0
21 3 3.6889416886364344e+01 1.6830034157785324e+01 7.2831582235447643e+00 -1 0 0
22 2 3.9617372383113043e+01 1.8210792116634483e+01 4.1159241623131049e+00 -1 0 0
23 3 3.9642564276322290e+01 1.8257439179561352e+01 7.2337137020028672e+00 -1 0 0
24 1 3.8825192945788963e+01 1.9845907646824458e+01 5.6613883041270459e+00 -1 0 0
25 2 1.2669002364880310e+01 1.9605606091616689e+01 4.0646563952959074e+00 0 0 0
26 3 1.2680281108006485e+01 1.9661016729117726e+01 7.1816152273897913e+00 0 0 0
27 1 4.1597637707496226e+01 2.1245653811679656e+01 5.6015736818959541e+00 -1 0 0
28 2 1.5467232245057343e+01 2.0993861177055535e+01 4.0321399005423926e+00 0 0 0
29 3 1.5452880313462384e+01 2.1042929146197107e+01 7.1485704632436518e+00 0 0 0
30 1 1.4659472660955311e+01 2.2630592178646619e+01 5.5639948743761174e+00 0 0 0
31 2 1.8276090791904871e+01 2.2383931500389664e+01 4.0332057130077992e+00 0 0 0
32 3 1.8234208596969804e+01 2.2415818804377835e+01 7.1495459805638459e+00 0 0 0
33 1 1.7454924903870904e+01 2.4011570154511642e+01 5.5643276518121043e+00 0 0 0
34 2 2.1080419158581321e+01 2.3784950436677367e+01 4.0667458509211256e+00 0 0 0
35 3 2.1022803915761514e+01 2.3797328712817034e+01 7.1835393129774205e+00 0 0 0
36 1 2.0251395310536964e+01 2.5401781755054763e+01 5.6015773340467661e+00 0 0 0
37 2 2.3869794650219543e+01 2.5204254481105792e+01 4.1159277656320548e+00 0 0 0
38 3 2.3816802121967235e+01 2.5202747674004748e+01 7.2337173795059151e+00 0 0 0
39 1 8.1798153051917417e+00 1.0697170853792080e+00 5.6583005528089911e+00 0 1 0
40 2 1.1781084876631089e+01 9.0111654332231150e-01 4.1584809518388504e+00 0 1 0
41 3 1.1751106974880329e+01 8.9425769826535972e-01 7.2772555870458886e+00 0 1 0
42 1 1.0961952607054572e+01 2.5029507338856294e+00 5.7107003162872285e+00 0 1 0
43 2 1.4546537442909221e+01 2.3533099075952175e+00 4.1784471766358280e+00 0 1 0
44 3 1.4548231747089195e+01 2.3466378708432662e+00 7.2976720920451381e+00 0 1 0
45 2 3.3999160375375908e+01 1.2273279838717162e+01 4.1782887628048417e+00 -1 0 0
46 3 3.4001950310492788e+01 1.2241752760960601e+01 7.2968255839729146e+00 -1 0 0
47 2 3.6736510981467269e+01 1.3682184497755808e+01 4.1795287418368767e+00 -1 0 0
48 3 3.6743797148816775e+01 1.3680884534078261e+01 7.2984135552477376e+00 -1 0 0
49 1 3.5923184681018263e+01 1.5291399277181489e+01 5.7415432731550595e+00 -1 0 0
50 2 9.7522186237091404e+00 1.5089107761756264e+01 4.1584786874956876e+00 0 0 0
51 3 9.7612683507561417e+00 1.5118500635303205e+01 7.2772532761292350e+00 0 0 0
52 1 3.8668107851141592e+01 1.6714177406743236e+01 5.7062705782908330e+00 -1 0 0
53 2 1.2509562643138583e+01 1.6488950126293503e+01 4.1234772947771443e+00 0 0 0
54 3 1.2512274106780637e+01 1.6540252348690966e+01 7.2416424709344067e+00 0 0 0
55 1 1.1698867692576394e+01 1.8123598495989079e+01 5.6582966591145141e+00 0 0 0
56 2 1.5290054920881959e+01 1.7881818115136181e+01 4.0913057645435460e+00 0 0 0
57 3 1.5276020415652567e+01 1.7939977640305262e+01 7.2087320679880538e+00 0 0 0
58 1 1.4471054549263343e+01 1.9517957714757049e+01 5.6169361941306377e+00 0 0 0
59 2 1.8088665453613764e+01 1.9273442633186114e+01 4.0796499719868340e+00 0 0 0
60 3 1.8052018335307380e+01 1.9323480755946576e+01 7.1966519559604594e+00 0 0 0
61 1 1.7258480920104990e+01 2.0903983039215081e+01 5.6014070622643741e+00 0 0 0
62 2 2.0891633787392934e+01 2.0672529338699075e+01 4.0958065018408023e+00 0 0 0
63 3 2.0837982282387681e+01 2.0706280832276704e+01 7.2128917905458598e+00 0 0 0
64 1 2.0054070479554266e+01 2.2293986456491169e+01 5.6193981382201361e+00 0 0 0
65 2 2.3685280265099998e+01 2.2087476965150213e+01 4.1307193923824927e+00 0 0 0
66 3 2.3631436609608759e+01 2.2105917430091225e+01 7.2484053705422724e+00 0 0 0
67 1 2.2849833558641038e+01 2.3700648751170451e+01 5.6613920565242761e+00 0 0 0
68 2 2.6464093164171199e+01 2.3522451680987785e+01 4.1646939278350370e+00 0 0 0
69 3 2.6429545306265275e+01 2.3532155995568097e+01 7.2831605157835408e+00 0 0 0
70 1 2.5640533761315542e+01 2.5130475786483924e+01 5.7062734676979048e+00 0 0 0
71 2 2.9232113732444404e+01 2.4973661213424727e+01 4.1795290542919989e+00 0 0 0
72 3 2.9229598802908455e+01 2.4980621452366428e+01 7.2984138719997844e+00 0 0 0
73 1 1.3562841320425157e+01 8.3664181326057252e-01 5.7338514428709928e+00 0 1 0
74 2 1.7136599659719487e+01 6.8696523735171522e-01 4.1672072178137478e+00 0 1 0
75 3 1.7167417925436762e+01 6.9199021979006115e-01 7.2859376759535621e+00 0 1 0
76 1 1.6344435579442429e+01 2.2896981034694126e+00 5.7344089504091347e+00 0 1 0
77 2 1.9912510531103191e+01 2.1328633683345859e+00 4.1324604964172309e+00 0 1 0
78 3 1.9966074988110858e+01 2.1308791350186325e+00 7.2505843657225428e+00 0 1 0
79 2 3.3867427633482528e+01 9.1535064114873066e+00 4.1357187869661125e+00 -1 0 0
80 3 3.3855757379482739e+01 9.0998445087049689e+00 7.2535874766130197e+00 -1 0 0
81 1 3.3043112286719762e+01 1.0735931377028379e+01 5.7177267206122870e+00 -1 0 0
82 2 6.8890002826804073e+00 1.0558171948656964e+01 4.1672089648545381e+00 0 0 0
83 3 6.8779438442702538e+00 1.0528971895608773e+01 7.2859394588487394e+00 0 0 0
84 1 3.5790694112632778e+01 1.2154198806855158e+01 5.7367655894348077e+00 -1 0 0
85 2 9.6271281036940692e+00 1.1968059185603540e+01 4.1784468955538570e+00 0 0 0
86 3 9.6205036069269845e+00 1.1969929967940168e+01 7.2976718082529120e+00 0 0 0
87 1 8.8055034867872521e+00 1.3578300035374347e+01 5.7338504283754625e+00 0 0 0
88 2 1.2372385821519806e+01 1.3376954540949921e+01 4.1687296933829288e+00 0 0 0
89 3 1.2367563810419380e+01 1.3406750375548384e+01 7.2879029746039174e+00 0 0 0
90 1 1.1549014365695710e+01 1.4997580607696534e+01 5.7106975747962254e+00 0 0 0
91 2 1.5136391014557496e+01 1.4780083273252318e+01 4.1479175877159618e+00 0 0 0
92 3 1.5125632511641323e+01 1.4826297772786646e+01 7.2665910040512971e+00 0 0 0
93 1 1.4306669026983178e+01 1.6404694308149210e+01 5.6794140747841215e+00 0 0 0
94 2 1.7921378467254854e+01 1.6178307102734493e+01 4.1324611814429000e+00 0 0 0
95 3 1.7896313790312885e+01 1.6225686694865100e+01 7.2505850476199560e+00 0 0 0
96 1 1.7082112056413511e+01 1.7800229085026242e+01 5.6580701754789340e+00 0 0 0
97 2 2.0718201257674025e+01 1.7577960136813200e+01 4.1357173397025342e+00 0 0 0
98 3 2.0677562703475125e+01 1.7614897781695333e+01 7.2535859861301342e+00 0 0 0
99 1 1.9871265255287110e+01 1.9193133354912952e+01 5.6606031385038245e+00 0 0 0
100 2 2.3511981845885650e+01 1.8987643091711192e+01 4.1575099202455190e+00 0 0 0
101 3 2.3466050280482627e+01 1.9011637428882867e+01 7.2755112142946370e+00 0 0 0
102 1 2.2665713214310792e+01 2.0596534600251530e+01 5.6865289966525348e+00 0 0 0
103 2 2.6292417480187709e+01 2.0413838038701517e+01 4.1833001289233884e+00 0 0 0
104 3 2.6258571224800221e+01 2.0430255730150012e+01 7.3016935747097635e+00 0 0 0
105 1 2.5458068323655482e+01 2.2020351311498139e+01 5.7203008537209765e+00 0 0 0
106 2 2.9059346243046747e+01 2.1856543144639417e+01 4.1942318329014974e+00 0 0 0
107 3 2.9052571476035055e+01 2.1872435504842535e+01 7.3129183741064789e+00 0 0 0
108 1 2.8245157313255959e+01 2.3464692468985266e+01 5.7415443032822511e+00 0 0 0
109 2 3.1820936116269479e+01 2.3307498089227543e+01 4.1782870263271512e+00 0 0 0
110 3 3.1846846483256311e+01 2.3325678104068910e+01 7.2968238170842108e+00 0 0 0
111 1 3.1028297739905135e+01 2.4918552622372225e+01 5.7367644639800108e+00 0 0 0
112 2 3.4588606131769062e+01 2.4753300043473157e+01 4.1357153834142792e+00 0 0 0
113 3 3.4640915068244304e+01 2.4770024307907352e+01 7.2535840118952315e+00 0 0 0
114 1 1.8949210195000880e+01 6.2272570995250609e-01 5.7049690502817709e+00 0 1 0
115 2 2.2509333689464746e+01 4.4042077616061481e-01 4.0796484786442484e+00 0 1 0
116 3 2.2570991533484918e+01 4.4713747565544021e-01 7.1966504523324701e+00 0 1 0
117 1 2.1736769566666744e+01 2.0487273496619265e+00 5.6580694897283843e+00 0 1 0
118 2 2.5309977228991460e+01 1.8504387742350210e+00 4.0321398177976535e+00 0 1 0
119 3 2.5359646621272340e+01 1.8383319201014536e+00 7.1485703863936472e+00 0 1 0
120 2 3.0926391417681188e+01 4.6355900874079792e+00 4.0332069123847134e+00 -1 0 0
121 3 3.0919715415878237e+01 4.5833750844030758e+00 7.1495471917165538e+00 -1 0 0
122 2 3.9891221370605785e+00 6.0285199379091479e+00 4.0796523962153852e+00 0 0 0
123 3 3.9641103516854237e+00 5.9717640070440874e+00 7.1966544296079622e+00 0 0 0
124 1 3.2892114972365015e+01 7.6124516594859806e+00 5.6606049088837374e+00 -1 0 0
125 2 6.7532306035075340e+00 7.4312137984507052e+00 4.1324636289198606e+00 0 0 0
126 3 6.7247308244058006e+00 7.3858184943718568e+00 7.2505875596293885e+00 0 0 0
127 1 5.9270631465101005e+00 9.0205254294621628e+00 5.7049719948080799e+00 0 0 0
128 2 9.5003971753193426e+00 8.8449872947490302e+00 4.1720501316778460e+00 0 0 0
129 3 9.4791286953105480e+00 8.8224560094572197e+00 7.2911715316984926e+00 0 0 0
130 1 8.6730901905245066e+00 1.0442840625371664e+01 5.7344100141355119e+00 0 0 0
131 2 1.2244234078715092e+01 1.0264680768307276e+01 4.1886652013078329e+00 0 0 0
132 3 1.2233207453450033e+01 1.0267829837711199e+01 7.3082625999359179e+00 0 0 0
133 1 1.1415185324594907e+01 1.1870111565255977e+01 5.7410900444912922e+00 0 0 0
134 2 1.4998821666741664e+01 1.1682070815899968e+01 4.1845319299886565e+00 0 0 0
135 3 1.4993486148693702e+01 1.1704709249225004e+01 7.3040568258355236e+00 0 0 0
136 1 1.4164903465368337e+01 1.3291050327465088e+01 5.7288910890777602e+00 0 0 0
137 2 1.7772158011400609e+01 1.3092304402119963e+01 4.1720485283303042e+00 0 0 0
138 3 1.7763278576743680e+01 1.3121990097294573e+01 7.2911698819138016e+00 0 0 0
139 1 1.6929986379967765e+01 1.4699654178918212e+01 5.7113589967230283e+00 0 0 0
140 2 2.0561518563873697e+01 1.4497247706130135e+01 4.1672079997203344e+00 0 0 0
141 3 2.0541757403585063e+01 1.4521423478327151e+01 7.2859384531484412e+00 0 0 0
142 1 1.9710845949517974e+01 1.6099133449961581e+01 5.7049702531383328e+00 0 0 0
143 2 2.3354137149812438e+01 1.5903989377264390e+01 4.1782886305922871e+00 0 0 0
144 3 2.3325437838024222e+01 1.5917337292588407e+01 7.2968254275021156e+00 0 0 0
145 1 2.2500778541012046e+01 1.7500626087703694e+01 5.7177259508489708e+00 0 0 0
146 2 2.6136048831764498e+01 1.7320472409317219e+01 4.1983986875102985e+00 0 0 0
147 3 2.6110396153572978e+01 1.7327366898825986e+01 7.3169565143793376e+00 0 0 0
148 1 2.5290782236587123e+01 1.8916520527491219e+01 5.7419153071230689e+00 0 0 0
149 2 2.8901813863241195e+01 1.8750401916713340e+01 4.2103033381492088e+00 0 0 0
150 3 2.8893983999068535e+01 1.8759927637414567e+01 7.3289659704003016e+00 0 0 0
151 1 2.8075168486231540e+01 2.0351933449696048e+01 5.7592617876648973e+00 0 0 0
152 2 3.1656689408907187e+01 2.0190049900872584e+01 4.1983971306775016e+00 0 0 0
153 3 3.1675487560082487e+01 2.0208819182283406e+01 7.3169549453662013e+00 0 0 0
154 1 3.0853655786877002e+01 2.1800753210182013e+01 5.7531650899470064e+00 0 0 0
155 2 3.4412535910763303e+01 2.1628973497642878e+01 4.1575073305306827e+00 0 0 0
156 3 3.4456282407635463e+01 2.1656754258727624e+01 7.2755085906019108e+00 0 0 0
157 1 3.3630343949661778e+01 2.3248209787704777e+01 5.7177237590963195e+00 0 0 0
158 2 3.7181865516564301e+01 2.3055818177762003e+01 4.0958035493987595e+00 0 0 0
159 3 3.7237921448597760e+01 2.3085405115792589e+01 7.2128887979249861e+00 0 0 0
160 1 3.6410855615785692e+01 2.4679180737168981e+01 5.6606008645642412e+00 0 0 0
161 2 3.9971756046448036e+01 2.4465243438276399e+01 4.0332034774032568e+00 0 0 0
162 3 4.0020312165380496e+01 2.4485569045857400e+01 7.1495437255160192e+00 0 0 0
163 1 2.4336515458138621e+01 3.4411031707945394e-01 5.6014057127761365e+00 0 1 0
164 1 2.7131307347530381e+01 1.7316124204765317e+00 5.5639953158222317e+00 0 1 0
165 1 2.9927397336419034e+01 3.1106198571250245e+00 5.5643281008718271e+00 -1 0 0
166 2 3.8099132905460822e+00 2.8980827191310126e+00 4.0321427651856672e+00 0 0 0
167 3 3.7745937137796699e+00 2.8611195329371606e+00 7.1485733670152634e+00 0 0 0
168 1 2.9921250301207767e+00 4.4942886344729356e+00 5.6014093860740193e+00 0 0 0
169 2 6.5936091845244951e+00 4.3006652764356330e+00 4.0913092234083139e+00 0 0 0
170 3 6.5502585843145802e+00 4.2594318379568756e+00 7.2087356010273593e+00 0 0 0
171 1 5.7682385798669493e+00 5.8934269353921831e+00 5.6580731620829638e+00 0 0 0
172 2 9.3566215407973417e+00 5.7184570856692440e+00 4.1479203561950646e+00 0 0 0
173 3 9.3219786103844768e+00 5.6860336798010271e+00 7.2665938403001107e+00 0 0 0
174 1 8.5294775755301941e+00 7.3119709500257857e+00 5.7113614407270754e+00 0 0 0
175 2 1.2108363690641438e+01 7.1483256372504753e+00 4.1845332988400026e+00 0 0 0
176 3 1.2091427182374936e+01 7.1323866822814628e+00 7.3040582278074657e+00 0 0 0
177 1 1.1281168026590304e+01 8.7441578274978617e+00 5.7445468201899779e+00 0 0 0
178 2 1.4862372485202750e+01 8.5807952106020817e+00 4.1957930705993132e+00 0 0 0
179 3 1.4862372886911949e+01 8.5807957535708486e+00 7.3155777589527586e+00 0 0 0
180 1 1.4033046361136073e+01 1.0177492628894564e+01 5.7530854794199549e+00 0 0 0
181 2 1.7629729988530329e+01 1.0006225817914533e+01 4.1886646896820103e+00 0 0 0
182 3 1.7637969778319672e+01 1.0014201598575070e+01 7.3082620721911598e+00 0 0 0
183 1 1.6794450757809432e+01 1.1600527285623105e+01 5.7445455682710991e+00 0 0 0
184 2 2.0413452583786061e+01 1.1421016088359224e+01 4.1784467483447347e+00 0 0 0
185 3 2.0418383620097345e+01 1.1425818366532429e+01 7.2976716414973524e+00 0 0 0
186 1 1.9569592697166250e+01 1.3009846742283756e+01 5.7344090302553372e+00 0 0 0
187 2 2.3205608929737110e+01 1.2828921704208488e+01 4.1795294528348323e+00 0 0 0
188 3 2.3200838611897908e+01 1.2823262321550011e+01 7.2984142531193994e+00 0 0 0
189 1 2.2355242401620426e+01 1.4412016392126771e+01 5.7367654492294085e+00 0 0 0
190 2 2.5991495334907121e+01 1.4237859996019630e+01 4.1942327391633691e+00 0 0 0
191 3 2.5981119952766218e+01 1.4224045873535887e+01 7.3129192718909737e+00 0 0 0
192 1 2.5142656654680106e+01 1.5819672450430193e+01 5.7531665481079415e+00 0 0 0
193 2 2.8760257565840682e+01 1.5654504004105005e+01 4.2103037969094084e+00 0 0 0
194 3 2.8755923999785683e+01 1.5642960261803299e+01 7.3289664289758898e+00 0 0 0
195 1 2.7923642096396748e+01 1.7242632644654861e+01 5.7704515824594056e+00 0 0 0
196 2 3.1512161081713913e+01 1.7079861808394224e+01 4.2103029400126966e+00 0 0 0
197 3 3.1524326278088928e+01 1.7081881373360787e+01 7.3289655671424159e+00 0 0 0
198 1 3.0695481577171172e+01 1.8680868990951829e+01 5.7704507158380629e+00 0 0 0
199 2 3.4257437676503343e+01 1.8507947803677297e+01 4.1832981293293097e+00 0 0 0
200 3 3.4288579984419322e+01 1.8529051903175379e+01 7.3016915430632130e+00 0 0 0
201 1 3.3461541460783650e+01 2.0124048836210623e+01 5.7419131107522601e+00 0 0 0
202 2 3.7010421285986283e+01 1.9928975413763283e+01 4.1307161103147605e+00 0 0 0
203 3 3.7053313879656585e+01 1.9966385579027651e+01 7.2484020290135733e+00 0 0 0
204 1 3.6229011739158899e+01 2.1557417813623445e+01 5.6865258489386177e+00 0 0 0
205 1 3.9004870598457174e+01 2.2970440010177228e+01 5.6193949959555827e+00 0 0 0
206 1 5.5861712587058827e+00 2.7733202192836015e+00 5.6169398334995542e+00 0 0 0
207 1 8.3645287678391185e+00 4.1875914509603209e+00 5.6794175376611395e+00 0 0 0
208 2 1.1953769286780746e+01 4.0263242066589360e+00 4.1687316725731804e+00 0 0 0
209 3 1.1930378040345502e+01 4.0072509601740611e+00 7.2879049968706227e+00 0 0 0
210 1 1.1131906156838951e+01 5.6216420540262533e+00 5.7288932715670953e+00 0 0 0
211 2 1.4713153654461884e+01 5.4714788765667945e+00 4.1886653812183452e+00 0 0 0
212 3 1.4715941547586795e+01 5.4603554399776542e+00 7.3082627827914521e+00 0 0 0
213 1 1.3894255067544023e+01 7.0642296290477713e+00 5.7530860322801098e+00 0 0 0
214 2 1.7479932489796180e+01 6.9119889218924806e+00 4.1845321219283118e+00 0 0 0
215 3 1.7502205508726298e+01 6.9052907893053543e+00 7.3040570258622193e+00 0 0 0
216 1 1.6659816278110974e+01 8.5006638363364413e+00 5.7530853625512375e+00 0 0 0
217 2 2.0260963300047148e+01 8.3391062617210601e+00 4.1687301260198009e+00 0 0 0
218 3 2.0289177243148025e+01 8.3283845943575177e+00 7.2879034132229741e+00 0 0 0
219 1 1.9434598029977167e+01 9.9214875649643961e+00 5.7410899457282580e+00 0 0 0
220 2 2.3053815294629114e+01 9.7521604066305496e+00 4.1584800341452262e+00 0 0 0
221 3 2.3074743964795459e+01 9.7296269159359383e+00 7.2772546322455804e+00 0 0 0
222 1 2.2218773805273884e+01 1.1327443588537980e+01 5.7338510905747562e+00 0 0 0
223 2 2.5846403123560602e+01 1.1157350000395381e+01 4.1646939609791813e+00 0 0 0
224 3 2.5855272609418794e+01 1.1122577456785134e+01 7.2831605211854002e+00 0 0 0
225 1 2.5005892265290374e+01 1.2728676199747149e+01 5.7415447823721895e+00 0 0 0
226 2 2.8624378273855363e+01 1.2562981443227212e+01 4.1833005471440989e+00 0 0 0
227 3 2.8627083406108987e+01 1.2525460600229600e+01 7.3016939851101021e+00 0 0 0
228 1 2.7786614411505884e+01 1.4137841717824120e+01 5.7592624317070333e+00 0 0 0
229 2 3.1381494680618133e+01 1.3974245237668281e+01 4.1983985654085823e+00 0 0 0
230 3 3.1388350709122381e+01 1.3948582747959353e+01 7.3169563985153827e+00 0 0 0
231 1 3.0555110200416138e+01 1.5561267091163694e+01 5.7704513938490658e+00 0 0 0
232 2 3.4123391520411872e+01 1.5390364389882674e+01 4.1942314953080881e+00 0 0 0
233 3 3.4140543012211381e+01 1.5388287325833296e+01 7.3129180298516516e+00 0 0 0
234 1 3.3312451160748182e+01 1.6994993245965908e+01 5.7592608116683675e+00 0 0 0
235 1 3.6065894171527177e+01 1.8427259482616126e+01 5.7202981697259991e+00 0 0 0
236 1 1.3737334797596560e+01 3.9507865826790920e+00 5.7410909119166025e+00 0 0 0
237 2 1.7314563115549088e+01 3.8050933867756069e+00 4.1720485956033722e+00 0 0 0
238 3 1.7344711770487002e+01 3.7979399478934326e+00 7.2911699629055429e+00 0 0 0
239 1 1.6511499201824059e+01 5.3977007115671025e+00 5.7445459209065284e+00 0 0 0
240 2 2.0094106519963070e+01 5.2438442361536719e+00 4.1479178793100830e+00 0 0 0
241 3 2.0139508254700559e+01 5.2300536311343970e+00 7.2665913116503988e+00 0 0 0
242 1 1.9290308764269120e+01 6.8296929856708282e+00 5.7288914143427139e+00 0 0 0
243 2 2.2887443205705402e+01 6.6643101154706885e+00 4.1234785585526321e+00 0 0 0
244 3 2.2930515367666871e+01 6.6363102643360463e+00 7.2416437596549965e+00 0 0 0
245 1 2.2076152007285593e+01 8.2418534793311515e+00 5.7106986415813026e+00 0 0 0
246 2 2.5687068643046061e+01 8.0697196381059140e+00 4.1159267594722735e+00 0 0 0
247 3 2.5714868980476375e+01 8.0245789937382348e+00 7.2337163319936240e+00 0 0 0
248 1 2.4865593245981838e+01 9.6401138028743478e+00 5.7062727830739775e+00 0 0 0
249 2 2.8478533615690043e+01 9.4683140389653708e+00 4.1307195692363390e+00 0 0 0
250 3 2.8489484756778694e+01 9.4124632663090093e+00 7.2484055314851945e+00 0 0 0
251 1 2.7650272267680812e+01 1.1037156538833770e+01 5.7203010793567337e+00 0 0 0
252 2 3.1249716524172428e+01 1.0868150278379764e+01 4.1575105058056483e+00 0 0 0
253 3 3.1251902247585122e+01 1.0816375598186024e+01 7.2755118142257640e+00 0 0 0
254 1 3.0421910701230509e+01 1.2444198551074992e+01 5.7419156206928239e+00 0 0 0
255 1 3.3177921690280400e+01 1.3864342586186716e+01 5.7531660992059503e+00 0 0 0
256 1 1.9127654949941103e+01 3.7307597028743049e+00 5.7113588995665250e+00 0 0 0
257 2 2.2703456804448706e+01 3.5599001628319482e+00 4.0913059748899236e+00 0 0 0
258 3 2.2760841077389230e+01 3.5429732924758932e+00 7.2087322935029281e+00 0 0 0
259 1 2.1915921843631377e+01 5.1500982078632367e+00 5.6794147068528451e+00 0 0 0
260 2 2.5506827492082241e+01 4.9679037398440533e+00 4.0646581734751814e+00 0 0 0
261 3 2.5549174073797563e+01 4.9304294029995761e+00 7.1816170320048558e+00 0 0 0
262 1 2.4708437224895992e+01 6.5490678151792894e+00 5.6582986594176372e+00 0 0 0
263 2 2.8310909519321989e+01 6.3637007166963500e+00 4.0667455593396733e+00 0 0 0
264 3 2.8328995659732939e+01 6.3076145516090225e+00 7.1835390025010630e+00 0 0 0
265 1 2.7499209341727973e+01 7.9382093957672382e+00 5.6613916480824766e+00 0 0 0
266 2 3.1100736978929532e+01 7.7564183762821184e+00 4.0958075733514541e+00 0 0 0
267 3 3.1098331887389893e+01 7.6930791026377525e+00 7.2128928789256701e+00 0 0 0
268 1 3.0279510477397682e+01 9.3308140004714684e+00 5.6865296510892707e+00 0 0 0
269 1 2.4529895234386874e+01 3.4511044397521751e+00 5.6169368771893922e+00 0 0 0
270 2 2.8120503608039666e+01 3.2458816467916556e+00 4.0140604035944412e+00 0 0 0
271 3 2.8142873081732706e+01 3.2112483585399652e+00 7.1302921208609540e+00 0 0 0
272 1 2.7325203918300396e+01 4.8373287988245544e+00 5.6015761590978741e+00 0 0 0
273 1 3.0115295580682645e+01 6.2203382897562225e+00 5.6193988438379510e+00 0 0 0
274 5 4.2802244701192720e+01 2.5623048739145606e+01 1.0569138395588087e+01 -1 0 0
275 6 4.2779455662471612e+01 2.5624528883610424e+01 1.3685219056149217e+01 -1 0 0
276 5 3.0513812072644793e+01 1.6054191501155120e+00 1.0569136884293357e+01 -1 1 0
277 6 3.0526489406843673e+01 1.6244171291724521e+00 1.3685217551854562e+01 -1 1 0
278 5 3.7792880020753842e+01 1.9106081572446644e+01 1.0437406015096148e+01 -1 0 0
279 6 3.7749806983559388e+01 1.9078081845921890e+01 1.3555571181142302e+01 -1 0 0
280 5 4.0411537784964658e+01 2.0811962407689094e+01 1.0497433132141307e+01 -1 0 0
281 6 4.0369190686136896e+01 2.0774488890021388e+01 1.3614391957157682e+01 -1 0 0
282 5 1.3280492828179336e+01 2.2531143478044442e+01 1.0548757728762695e+01 0 0 0
283 6 1.3258123252753350e+01 2.2496511632872320e+01 1.3664989431543487e+01 0 0 0
284 4 4.1993670232435662e+01 2.4010780165449820e+01 1.2115053627855845e+01 -1 0 0
285 5 1.5858150938687281e+01 2.4256328141066120e+01 1.0569137873872611e+01 0 0 0
286 6 1.5868266005411758e+01 2.4235852492815596e+01 1.3685218537786303e+01 0 0 0
287 4 2.9724735977917895e+01 1.0884168838909069e-05 1.2135933210463692e+01 -1 1 0
288 5 3.5719519051095872e+00 2.3569358995146050e-01 1.0548754909146272e+01 0 1 0
289 6 3.6131304972780991e+00 2.3363720852108852e-01 1.3664986635930379e+01 0 1 0
290 4 2.5925432638969257e+00 1.7308224673603709e+00 1.2114719385084218e+01 0 1 0
291 5 6.1604227070173962e+00 1.9450630929359165e+00 1.0495507856724936e+01 0 1 0
292 6 6.2180379687393863e+00 1.9574426738773021e+00 1.3612301319056522e+01 0 1 0
293 5 3.5280749586059251e+01 1.4316573630552179e+01 1.0381376373913689e+01 -1 0 0
294 6 3.5275817387229750e+01 1.4321375016209988e+01 1.3500601278858888e+01 -1 0 0
295 5 3.7937109564432284e+01 1.6012764937143686e+01 1.0401794821842755e+01 -1 0 0
296 6 3.7916179741823960e+01 1.5990230863667433e+01 1.3520569402985846e+01 -1 0 0
297 4 3.6938516878502298e+01 1.7500538141755381e+01 1.1968350781235195e+01 -1 0 0
298 5 1.0852490543557318e+01 1.7717812979944373e+01 1.0445334220551981e+01 0 0 0
299 6 1.0824689406460262e+01 1.7672672239898969e+01 1.3563123754921126e+01 0 0 0
300 4 3.9570801354335678e+01 1.9193324089587193e+01 1.2020751612874095e+01 -1 0 0
301 5 1.3466616300528791e+01 1.9434777622983376e+01 1.0495511951921751e+01 0 0 0
302 6 1.3448529897937577e+01 1.9378691966882712e+01 1.3612305358911200e+01 0 0 0
303 4 1.2462824107240738e+01 2.0905063528982076e+01 1.2077474293609756e+01 0 0 0
304 5 1.6057335375116232e+01 2.1159017204152015e+01 1.0529503377048451e+01 0 0 0
305 6 1.6064011575443619e+01 2.1106803266297252e+01 1.3645843633829626e+01 0 0 0
306 4 1.5065017058231920e+01 2.2631772796914717e+01 1.2114721806142844e+01 0 0 0
307 5 1.8636956630801293e+01 2.2881272746860983e+01 1.0530476284068500e+01 0 0 0
308 6 1.8672276603834135e+01 2.2844310938907586e+01 1.3646906868971598e+01 0 0 0
309 4 1.7658704895986656e+01 2.4362216179326584e+01 1.2115051686851874e+01 0 0 0
310 5 2.1220028231989133e+01 2.4591456627747743e+01 1.0497429475119331e+01 0 0 0
311 6 2.1273655298205611e+01 2.4573520301116673e+01 1.3614388359476914e+01 0 0 0
312 4 5.3890137236558857e+00 3.4061094026312694e-01 1.2077470573039809e+01 0 1 0
313 5 8.9544209822247272e+00 5.3964448523418085e-01 1.0445330413303196e+01 0 1 0
314 6 9.0074137177276210e+00 5.3813876543443928e-01 1.3563120013010957e+01 0 1 0
315 4 7.9874524921394752e+00 2.0417438064422551e+00 1.2017655177340144e+01 0 1 0
316 5 1.1567164751794571e+01 2.2102362735206635e+00 1.0395886801868485e+01 0 1 0
317 6 1.1601712718243464e+01 2.2199412140984633e+00 1.3514353378193626e+01 0 1 0
318 5 3.2758678596189867e+01 9.5167055022311988e+00 1.0428460637848257e+01 -1 0 0
319 6 3.2783742601290975e+01 9.5640845373521515e+00 1.3546584558862405e+01 -1 0 0
320 5 3.5404123039641007e+01 1.1220968426328730e+01 1.0393108486836450e+01 -1 0 0
321 6 3.5423883097669304e+01 1.1245143358423181e+01 1.3511838974990150e+01 -1 0 0
322 4 3.4431958003218533e+01 1.2732544884858683e+01 1.1944638135481455e+01 -1 0 0
323 5 8.3384613243749364e+00 1.2919129552703605e+01 1.0380634247991535e+01 0 0 0
324 6 8.3432304457940631e+00 1.2913469247285191e+01 1.3499519056290138e+01 0 0 0
325 4 3.7081139126252808e+01 1.4414947859027569e+01 1.1945197600378313e+01 -1 0 0
326 5 1.0992895022575659e+01 1.4619814702400536e+01 1.0395889439512546e+01 0 0 0
327 6 1.0984024621339898e+01 1.4585041349528346e+01 1.3514355979498822e+01 0 0 0
328 4 1.0003214965010091e+01 1.6102277870663222e+01 1.1972777307775528e+01 0 0 0
329 5 1.3627106464686854e+01 1.6329929331108374e+01 1.0430645390958588e+01 0 0 0
330 6 1.3616154962163083e+01 1.6274078064038214e+01 1.3548331313131703e+01 0 0 0
331 4 1.2636830451253324e+01 1.7804182761737316e+01 1.2017659314076985e+01 0 0 0
332 5 1.6235952833604060e+01 1.8049313843771156e+01 1.0466158245210679e+01 0 0 0
333 6 1.6238358150666055e+01 1.7985974532865828e+01 1.3583243508201125e+01 0 0 0
334 4 1.5252916098434653e+01 1.9522054352755692e+01 1.2059652201715572e+01 0 0 0
335 5 1.8826474006491019e+01 1.9770629053153360e+01 1.0482396187570279e+01 0 0 0
336 6 1.8851486368782972e+01 1.9713873528516871e+01 1.3599398184899275e+01 0 0 0
337 4 1.7854488387301735e+01 2.1248104293278306e+01 1.2077641023069187e+01 0 0 0
338 5 2.1412622050955534e+01 2.1482961111215808e+01 1.0470314134103038e+01 0 0 0
339 6 2.1455973255233488e+01 2.1441728369654879e+01 1.3587740482907193e+01 0 0 0
340 4 2.0448534491795531e+01 2.2969072752792627e+01 1.2062109576880633e+01 0 0 0
341 5 2.4006693755514647e+01 2.3176571345393494e+01 1.0437402837182336e+01 0 0 0
342 6 2.4052477997206722e+01 2.3153269680040015e+01 1.3555568067825668e+01 0 0 0
343 4 2.3042178658172972e+01 2.4672675785163069e+01 1.2020747886637713e+01 0 0 0
344 5 2.6613470650324818e+01 2.4848134821671547e+01 1.0401792531715822e+01 0 0 0
345 6 2.6643448825796774e+01 2.4841276760179202e+01 1.3520567147750048e+01 0 0 0
346 4 1.0778152843308181e+01 6.1191699225570129e-01 1.1972774252709527e+01 0 1 0
347 5 1.4367218076678373e+01 7.6177104751700064e-01 1.0380633712754420e+01 0 1 0
348 6 1.4369733220952897e+01 7.6873192356408349e-01 1.3499518515331374e+01 0 1 0
349 4 1.3382776882636595e+01 2.2777003657007433e+00 1.1937502987437878e+01 0 1 0
350 5 1.6984465959599067e+01 2.4167146151107208e+00 1.0382223345103199e+01 0 1 0
351 6 1.6958555888727190e+01 2.4348950329544818e+00 1.3500760130518898e+01 0 1 0
352 5 3.0315242671307484e+01 4.6994629057716857e+00 1.0530475057902933e+01 -1 0 0
353 6 3.0329594652991190e+01 4.7485318309975080e+00 1.3646905651985545e+01 -1 0 0
354 5 3.2914381723493527e+01 6.4189111572956410e+00 1.0482393513765732e+01 -1 0 0
355 6 3.2951028450134203e+01 6.4689496206621069e+00 1.3599395543211280e+01 -1 0 0
356 4 3.1944475775875340e+01 7.9421631854372494e+00 1.2020975102704805e+01 -1 0 0
357 5 5.8151840057519504e+00 8.1274940245099661e+00 1.0425460183615810e+01 0 0 0
358 6 5.8558217506316055e+00 8.1644313747160755e+00 1.3543328873125393e+01 0 0 0
359 4 3.4573210443630188e+01 9.6432583176204911e+00 1.1974075935078796e+01 -1 0 0
360 5 8.4630600156372751e+00 9.8250546073104363e+00 1.0382221982329972e+01 0 0 0
361 6 8.4917583383937849e+00 9.8384017357039752e+00 1.3500758803128216e+01 0 0 0
362 4 7.4928642611079965e+00 1.1330375134480819e+01 1.1942282164030338e+01 0 0 0
363 5 1.1118742483900881e+01 1.1518346422803427e+01 1.0366129529267825e+01 0 0 0
364 6 1.1129117035875039e+01 1.1504531227922046e+01 1.3484816062554636e+01 0 0 0
365 4 1.0143514340801177e+01 1.3013715479014536e+01 1.1937504374646890e+01 0 0 0