LAMMPS data file via write_data, version 30 Mar 2018, timestep = 893

366 atoms
6 atom types

0.0000000000000000e+00 2.4336919000000002e+01 xlo xhi
0.0000000000000000e+00 2.1076388999999999e+01 ylo yhi
0.0000000000000000e+00 1.0000000000000000e+02 zlo zhi
1.2168460000000000e+01 0.0000000000000000e+00 0.0000000000000000e+00 xy xz yz

Masses

1 95.94
2 32.066
3 32.066
4 95.94
5 32.066
6 32.066

Atoms # atomic

1 2 2.2545613591759505e+01 1.0605647212846217e-01 4.1663544096475471e+00 -1 1 0
2 3 2.2533757427362218e+01 1.0924533674303398e-01 7.2858857705678668e+00 -1 1 0
3 2 9.8739785250441292e-01 1.4980346046460256e+00 4.1663550444664379e+00 0 1 0
4 3 9.9608668565110647e-01 1.5067072809231536e+00 7.2858864274008655e+00 0 1 0
5 2 3.1723643015668031e+01 1.6717329942552912e+01 4.1512749762967571e+00 -1 0 0
6 3 3.1734099081426024e+01 1.6707471922641414e+01 7.2705692529070749e+00 -1 0 0
7 2 3.4524711493437771e+01 1.8093999333101031e+01 4.1572921997221179e+00 -1 0 0
8 3 3.4525605854093953e+01 1.8075716097416240e+01 7.2765614015076903e+00 -1 0 0
9 1 3.3710105547527945e+01 1.9689599100612110e+01 5.7226366752403104e+00 -1 0 0
10 2 1.2971995005426113e+01 1.9472007778540810e+01 4.1663545308431473e+00 0 0 0
11 3 1.2975161017832979e+01 1.9460145362125321e+01 7.2858858930624635e+00 0 0 0
12 1 3.6505254443358169e+01 2.1076292113877756e+01 5.7303677432670206e+00 -1 0 0
13 2 1.5741349477697185e+01 2.0852238802224729e+01 4.1572932541294598e+00 0 0 0
14 3 1.5756735681091969e+01 2.0862153979327093e+01 7.2765624866352354e+00 0 0 0
15 1 2.7862826733900055e+00 1.3960538990737146e+00 5.7164487768898296e+00 0 1 0
16 2 6.3431427777512832e+00 1.1545048091750729e+00 4.1215621298817409e+00 0 1 0
17 3 6.3679148810561985e+00 1.1887340866873166e+00 7.2395443342922761e+00 0 1 0
18 2 9.1308662439848955e+00 2.5277076887810153e+00 4.0720885030252409e+00 0 1 0
19 3 9.1501453414484963e+00 2.5736519922472194e+00 7.1884215022669045e+00 0 1 0
20 2 2.8722103657948068e+01 1.2246465964505234e+01 4.1457900817613584e+00 -1 0 0
21 3 2.8763425094089499e+01 1.2232629751438941e+01 7.2648643860214133e+00 -1 0 0
22 2 3.1525140306768527e+01 1.3631897984766272e+01 4.1241437537037342e+00 -1 0 0
23 3 3.1561109074130076e+01 1.3606525962280971e+01 7.2423933276007419e+00 -1 0 0
24 1 3.0727796761748301e+01 1.5222017337124566e+01 5.7071179574950657e+00 -1 0 0
25 2 9.9966155444628910e+00 1.5005562183272581e+01 4.1215602838271721e+00 0 0 0
26 3 1.0013873938419852e+01 1.4966994021605005e+01 7.2395424297659678e+00 0 0 0
27 1 3.3527159016933993e+01 1.6591941256379137e+01 5.7046365566956574e+00 -1 0 0
28 2 1.2793094330421621e+01 1.6374280301429941e+01 4.1382628036565228e+00 0 0 0
29 3 1.2795011435827227e+01 1.6335045579277452e+01 7.2567062404070004e+00 0 0 0
30 1 1.1984234194902406e+01 1.7965117915881155e+01 5.7164474490656563e+00 0 0 0
31 2 1.5569385711591824e+01 1.7743615562915917e+01 4.1548698602135232e+00 0 0 0
32 3 1.5568250057606486e+01 1.7724198047246574e+01 7.2740978536168992e+00 0 0 0
33 1 1.4766821888867662e+01 1.9348969300407465e+01 5.7226370760461442e+00 0 0 0
34 2 1.8334114289089307e+01 1.9114777744464245e+01 4.1512755097689853e+00 0 0 0
35 3 1.8337423776677362e+01 1.9128760633401338e+01 7.2705697957975479e+00 0 0 0
36 1 1.7540946065807486e+01 2.0739362011928559e+01 5.7046378262337498e+00 0 0 0
37 2 2.1105427654196486e+01 2.0485585493606923e+01 4.1241446395738901e+00 0 0 0
38 3 2.1109416705444374e+01 2.0529420442160180e+01 7.2423942461794484e+00 0 0 0
39 1 8.1482884023830042e+00 1.0489006687538298e+00 5.6631749878575448e+00 0 1 0
40 2 1.1728843241408377e+01 7.7843747432211852e-01 4.0897218421870232e+00 0 1 0
41 3 1.1721399414751263e+01 8.3392240196246781e-01 7.2066079305161752e+00 0 1 0
42 1 1.0935522322569449e+01 2.4230155043472257e+00 5.6189596959536567e+00 0 1 0
43 2 1.4541136473970226e+01 2.1488380248289403e+00 4.0725239766734882e+00 0 1 0
44 3 1.4512184906265542e+01 2.1946257238740849e+00 7.1887500745709518e+00 0 1 0
45 2 2.5730305062404444e+01 7.7320510033872027e+00 4.1531169164792603e+00 -1 0 0
46 3 2.5754566238495620e+01 7.7271426456376044e+00 7.2724476405758169e+00 -1 0 0
47 2 2.8514332575117841e+01 9.1382765555159544e+00 4.1258034562073567e+00 -1 0 0
48 3 2.8565021219199814e+01 9.1297625792210155e+00 7.2439413764300760e+00 -1 0 0
49 1 2.7742872376634764e+01 1.0742261969481955e+01 5.7076188956766662e+00 -1 0 0
50 2 6.9780805545610969e+00 1.0529441671644413e+01 4.0897215161707861e+00 0 0 0
51 3 7.0298544345487581e+00 1.0508146686358049e+01 7.2066075891870041e+00 0 0 0
52 1 3.0539354207460448e+01 1.2127106668049716e+01 5.6788559513046533e+00 -1 0 0
53 2 9.7919815708291935e+00 1.1904720991988558e+01 4.0720868578752309e+00 0 0 0
54 3 9.8221319543135444e+00 1.1865053475783489e+01 7.1884198117931843e+00 0 0 0
55 1 9.0025869579096849e+00 1.3495062346402264e+01 5.6631733850579593e+00 0 0 0
56 2 1.2603396138528005e+01 1.3270467606750952e+01 4.0863976629897465e+00 0 0 0
57 3 1.2605731322668131e+01 1.3218645749891273e+01 7.2030353655099004e+00 0 0 0
58 1 1.1799926438191418e+01 1.4857800786567630e+01 5.6734887195932941e+00 0 0 0
59 2 1.5396160744741206e+01 1.4634857643158385e+01 4.1218591107231157e+00 0 0 0
60 3 1.5381404066774961e+01 1.4589375146610530e+01 7.2397388439405601e+00 0 0 0
61 1 1.4586160353717075e+01 1.6228215653116713e+01 5.6989587725811717e+00 0 0 0
62 2 1.8167818417539713e+01 1.6003403374660838e+01 4.1531159048865449e+00 0 0 0
63 3 1.8151436323134995e+01 1.5984844850141132e+01 7.2724465748832943e+00 0 0 0
64 1 1.7359307243254900e+01 1.7611060985016433e+01 5.7154518366512006e+00 0 0 0
65 2 2.0931873705622170e+01 1.7376437285855605e+01 4.1609708721952803e+00 0 0 0
66 3 2.0921524656820118e+01 1.7393237852767037e+01 7.2807587696290383e+00 0 0 0
67 1 2.0127016172565128e+01 1.9000005327007070e+01 5.7071183947183659e+00 0 0 0
68 2 2.3706765005447014e+01 1.8750800120887508e+01 4.1457902512182665e+00 0 0 0
69 3 2.3698086978104811e+01 1.8793503255484623e+01 7.2648645664897993e+00 0 0 0
70 1 2.2901508375349895e+01 2.0384264969154909e+01 5.6788564563460868e+00 0 0 0
71 2 2.6502420850012797e+01 2.0124959667698199e+01 4.1258031359268408e+00 0 0 0
72 3 2.6484450308210246e+01 2.0173114895223986e+01 7.2439410452383584e+00 0 0 0
73 1 1.3522535152844931e+01 6.8231743142391432e-01 5.6523012036207838e+00 0 1 0
74 2 1.7144434413365051e+01 4.2524271236573191e-01 4.1218602880004243e+00 0 1 0
75 3 1.7112424731128311e+01 4.6076401808846279e-01 7.2397400724924177e+00 0 1 0
76 1 1.6326115348782761e+01 2.0517663346840562e+00 5.6493781570809114e+00 0 1 0
77 2 1.9952352217118190e+01 1.8098524793762900e+00 4.1382630090967742e+00 0 1 0
78 3 1.9917415690404741e+01 1.8278100816775520e+00 7.2567064530489942e+00 0 1 0
79 2 2.5522453382594371e+01 4.6116364795284381e+00 4.1548706964992990e+00 -1 0 0
80 3 2.5539835399122335e+01 4.6203613414493967e+00 7.2740987318750605e+00 -1 0 0
81 2 3.9644099575781189e+00 6.0159988705961274e+00 4.1218616062253064e+00 0 0 0
82 3 4.0111763041372308e+00 6.0259601337770228e+00 7.2397414386954972e+00 0 0 0
83 1 2.7538018584286306e+01 7.6340512232061126e+00 5.6938140128839416e+00 -1 0 0
84 2 6.7587355987585997e+00 7.4087235836246883e+00 4.0725250320648971e+00 0 0 0
85 3 6.8128646786742824e+00 7.4109038662311990e+00 7.1887511581943135e+00 0 0 0
86 1 5.9979924924442605e+00 9.0241192421722420e+00 5.6523015807439858e+00 0 0 0
87 2 9.5720805366608559e+00 8.7863858267131398e+00 4.0356670078987102e+00 0 0 0
88 3 9.6072045638163672e+00 8.7702760267457460e+00 7.1510148119516241e+00 0 0 0
89 1 8.7989876871997126e+00 1.0394189512002329e+01 5.6189588871770333e+00 0 0 0
90 2 1.2393728477499838e+01 1.0153555474099459e+01 4.0351233076501529e+00 0 0 0
91 3 1.2395657804360585e+01 1.0116561349817006e+01 7.1504437055544532e+00 0 0 0
92 1 1.1601160512264066e+01 1.1752479003600392e+01 5.6173583864016496e+00 0 0 0
93 2 1.5205131640363488e+01 1.1518538092271244e+01 4.0725221186931719e+00 0 0 0
94 3 1.5179955429397701e+01 1.1470571277168506e+01 7.1887481611210484e+00 0 0 0
95 1 1.4396709343767803e+01 1.3112910797782737e+01 5.6493769076955820e+00 0 0 0
96 2 1.7993630840174710e+01 1.2889251904123300e+01 4.1258009480819497e+00 0 0 0
97 3 1.7960912634611411e+01 1.2849610470268349e+01 7.2439387662549635e+00 0 0 0
98 1 1.7179090357653180e+01 1.4486876920309555e+01 5.6938117855603654e+00 0 0 0
99 2 2.0763143511829998e+01 1.4268775433235756e+01 4.1658719839932097e+00 0 0 0
100 3 2.0740672310078786e+01 1.4254101891654321e+01 7.2857854300464711e+00 0 0 0
101 1 1.9950006258443473e+01 1.5875438562243552e+01 5.7232832004287113e+00 0 0 0
102 2 2.3530625971641342e+01 1.5653279457807855e+01 4.1770815725340578e+00 0 0 0
103 3 2.3523127343882720e+01 1.5665754715627504e+01 7.2975081051668074e+00 0 0 0
104 1 2.2719583631070684e+01 1.7268561924538140e+01 5.7248343507393367e+00 0 0 0
105 2 2.6312367723910292e+01 1.7036729779896131e+01 4.1658733227172045e+00 0 0 0
106 3 2.6310896300701774e+01 1.7063526060701641e+01 7.2857868297310517e+00 0 0 0
107 1 2.5499059437087183e+01 1.8654862768469247e+01 5.7076189701169913e+00 0 0 0
108 2 2.9112261553329628e+01 1.8417033466781639e+01 4.1531168481117779e+00 0 0 0
109 3 2.9104381658765149e+01 1.8440499549360240e+01 7.2724475683932397e+00 0 0 0
110 1 2.8293275326227118e+01 2.0031559848825893e+01 5.6938133908191171e+00 0 0 0
111 2 3.1918545986254173e+01 1.9797235874626939e+01 4.1548699671604927e+00 0 0 0
112 3 3.1902298696438507e+01 1.9807927856019315e+01 7.2740979794279959e+00 0 0 0
113 1 1.8929323673549831e+01 3.3004453161735792e-01 5.6989593267370671e+00 0 1 0
114 1 2.1734488338086948e+01 1.7149268147736429e+00 5.7164475131591086e+00 0 1 0
115 1 2.4533456868941354e+01 3.1139190865216029e+00 5.7226372210710865e+00 -1 0 0
116 2 3.7595590500123457e+00 2.8919663373349600e+00 4.1382647932428949e+00 0 0 0
117 3 3.7925779650746021e+00 2.9132432349300537e+00 7.2567083048558700e+00 0 0 0
118 1 2.9895210699302739e+00 4.5178387883999207e+00 5.6989607491080134e+00 0 0 0
119 2 6.5423881848729764e+00 4.2795900645578806e+00 4.0864003450051589e+00 0 0 0
120 3 6.5861000301074704e+00 4.3075228576862665e+00 7.2030381272017570e+00 0 0 0
121 1 5.7821798608990296e+00 5.9114228250572980e+00 5.6493798877105013e+00 0 0 0
122 2 9.3465462597414106e+00 5.6564693576898533e+00 4.0351252369299306e+00 0 0 0
123 3 9.3776210706209753e+00 5.6766373184469652e+00 7.1504456717419274e+00 0 0 0
124 1 8.5802133992431635e+00 7.2861358984405937e+00 5.5989837502756084e+00 0 0 0
125 2 1.2168334018856118e+01 7.0253667375694020e+00 4.0135340058588795e+00 0 0 0
126 3 1.2168334983656372e+01 7.0253675511905840e+00 7.1284735218451596e+00 0 0 0
127 1 1.1384089091359677e+01 8.6458160748704920e+00 5.5774111516222193e+00 0 0 0
128 2 1.4991548580240398e+01 8.3932786098904089e+00 4.0356652414251499e+00 0 0 0
129 3 1.4960035535598919e+01 8.3709169487097963e+00 7.1510130089715629e+00 0 0 0
130 1 1.4188228051462584e+01 1.0002386567859647e+01 5.5989813300865654e+00 0 0 0
131 2 1.7798080434544861e+01 9.7682203781599739e+00 4.0897189567068599e+00 0 0 0
132 3 1.7753751209895878e+01 9.7340311236189461e+00 7.2066049456796986e+00 0 0 0
133 1 1.6984477101754713e+01 1.1369663153494461e+01 5.6522986375103699e+00 0 0 0
134 2 2.0581516206094577e+01 1.1155221802998748e+01 4.1457880463428562e+00 0 0 0
135 3 2.0548872156457406e+01 1.1126354120700613e+01 7.2648622676668255e+00 0 0 0
136 1 1.9768452865311112e+01 1.2755362865119352e+01 5.7076168421172060e+00 0 0 0
137 2 2.3352117514006924e+01 1.2551440768729888e+01 4.1770809718424111e+00 0 0 0
138 3 2.3345061361970771e+01 1.2538708514944174e+01 7.2975074793203047e+00 0 0 0
139 1 2.2544406428402262e+01 1.4154046306676676e+01 5.7382324563524367e+00 0 0 0
140 2 2.6127642296626583e+01 1.3947767272439389e+01 4.1770817578056354e+00 0 0 0
141 3 2.6142195626547533e+01 1.3948022663804577e+01 7.2975082977072319e+00 0 0 0
142 1 2.5322378419560849e+01 1.5551474604480472e+01 5.7382332449609788e+00 0 0 0
143 2 2.8919316379963568e+01 1.5336774338056296e+01 4.1609710772759545e+00 0 0 0
144 3 2.8939041628941737e+01 1.5337335957249500e+01 7.2807589848771253e+00 0 0 0
145 1 2.8110347668405854e+01 1.6937595502445134e+01 5.7232841322608179e+00 0 0 0
146 1 3.0908790055357645e+01 1.8313395602496204e+01 5.7154520349427429e+00 0 0 0
147 1 5.5694524530556198e+00 2.7900978946311441e+00 5.6734911259383525e+00 0 0 0
148 1 8.3581228693183611e+00 4.1706233316500247e+00 5.6173606747263154e+00 0 0 0
149 2 1.1941373559796567e+01 3.8964355994304767e+00 4.0356672504834892e+00 0 0 0
150 3 1.1937764862035458e+01 3.9349090290724535e+00 7.1510150611182581e+00 0 0 0
151 1 1.1157107343481606e+01 5.5359660535763160e+00 5.5774119427768989e+00 0 0 0
152 2 1.4764727913492559e+01 5.2660752149897956e+00 4.0351235517467083e+00 0 0 0
153 3 1.4731726079541389e+01 5.2829033886285002e+00 7.1504439515802609e+00 0 0 0
154 1 1.3963807252663710e+01 6.8943191266789894e+00 5.5774105928565358e+00 0 0 0
155 2 1.7582155881711948e+01 6.6436710524550069e+00 4.0720855856143370e+00 0 0 0
156 3 1.7532727695749095e+01 6.6373954530443422e+00 7.1884184961560820e+00 0 0 0
157 1 1.6770494241592591e+01 8.2588954717691401e+00 5.6189568213003396e+00 0 0 0
158 2 2.0379816245448346e+01 8.0350047069820949e+00 4.1241420457625377e+00 0 0 0
159 3 2.0339858344010295e+01 8.0165416732497388e+00 7.2423915503794785e+00 0 0 0
160 1 1.9569521596227133e+01 9.6411166073511101e+00 5.6788536148865836e+00 0 0 0
161 2 2.3159195201719932e+01 9.4392760997619867e+00 4.1609699473018420e+00 0 0 0
162 3 2.3149817979633820e+01 9.4219128094333335e+00 7.2807578101518260e+00 0 0 0
163 1 2.2358762231786823e+01 1.1041415966901884e+01 5.7248329719595379e+00 0 0 0
164 2 2.5934874210046576e+01 1.0846982429132019e+01 4.1658729889243524e+00 0 0 0
165 3 2.5958815686921383e+01 1.0834858413181017e+01 7.2857864846233609e+00 0 0 0
166 1 2.5143600400867420e+01 1.2446965979722881e+01 5.7382328977155801e+00 0 0 0
167 1 2.7932039117567072e+01 1.3842509313397857e+01 5.7248344373559812e+00 0 0 0
168 1 1.3736562508870055e+01 3.7875784140173012e+00 5.5989828416461673e+00 0 0 0
169 2 1.7359219765257635e+01 3.5260419360390687e+00 4.0863980015835368e+00 0 0 0
170 3 1.7313173653047226e+01 3.5499319373158569e+00 7.2030357094060156e+00 0 0 0
171 1 1.6545720763987497e+01 5.1529982254879005e+00 5.6173581261833441e+00 0 0 0
172 2 2.0165246781389627e+01 4.9160322824562277e+00 4.1215596885698629e+00 0 0 0
173 3 2.0123216248396375e+01 4.9203712814999205e+00 7.2395418000070668e+00 0 0 0
174 1 1.9354129413309657e+01 6.5321366300652333e+00 5.6631720517522055e+00 0 0 0
175 2 2.2952627665315259e+01 6.3203802320496321e+00 4.1512744507494483e+00 0 0 0
176 3 2.2938861315322718e+01 6.3162546874759888e+00 7.2705686976614423e+00 0 0 0
177 1 2.2155571557747042e+01 7.9304650104197707e+00 5.7071167030405343e+00 0 0 0
178 1 2.4950030928316195e+01 9.3394532123366751e+00 5.7232836086164900e+00 0 0 0
179 1 1.9135625873922081e+01 3.4282008198097724e+00 5.6734886956791284e+00 0 0 0
180 2 2.2744324191709772e+01 3.2062497946116673e+00 4.1572922896676854e+00 0 0 0
181 3 2.2728042594341101e+01 3.2146171694975165e+00 7.2765614843682433e+00 0 0 0
182 1 2.1942279106853960e+01 4.8211845639844944e+00 5.7046361695159407e+00 0 0 0
183 1 2.4742287145440240e+01 6.2280309752842804e+00 5.7154521333961732e+00 0 0 0
184 5 2.3340589723467421e+01 1.5066986825864901e+00 1.0393164039344269e+01 -1 1 0
185 6 2.3349279760860455e+01 1.4980257052839741e+00 1.3512695404210410e+01 -1 1 0
186 5 3.0522161025362610e+01 1.5984835624537657e+01 1.0406602573159130e+01 -1 0 0
187 6 3.0505778680168724e+01 1.6003393060755069e+01 1.3525933285769396e+01 -1 0 0
188 5 3.3105347285073485e+01 1.7724188581325667e+01 1.0404952129552663e+01 -1 0 0
189 6 3.3104211355651998e+01 1.7743605328498557e+01 1.3524180136021101e+01 -1 0 0
190 4 3.3906775086365087e+01 1.9348959643580379e+01 1.1956413352057517e+01 -1 0 0
191 5 1.1361516587183903e+01 1.9460135995089406e+01 1.0393164293060156e+01 0 0 0
192 6 1.1364683006854923e+01 1.9471998298746918e+01 1.3512695651444725e+01 0 0 0
193 4 3.6505261069189736e+01 2.1076282953628045e+01 1.1948682266459969e+01 -1 0 0
194 5 1.8029184085738357e+00 1.0923605153822154e-01 1.0393163592338549e+01 0 1 0
195 6 1.7910632385895473e+00 1.0604767984794095e-01 1.3512694975430806e+01 0 1 0
196 4 2.6021878994681114e+00 1.7149178835717209e+00 1.1962601228972318e+01 0 1 0
197 5 4.4192600671073743e+00 1.8278004949894415e+00 1.0422341677271980e+01 0 1 0
198 6 4.3843243191090568e+00 1.8098436622376657e+00 1.3540785190026597e+01 0 1 0
199 5 2.8124723898869654e+01 1.1126345553141050e+01 1.0414185684790016e+01 -1 0 0
200 6 2.8092080819532764e+01 1.1155212546883003e+01 1.3533259989997537e+01 -1 0 0
201 4 2.8905143914103284e+01 1.2755353679126149e+01 1.1971431280105628e+01 -1 0 0
202 5 3.0712684309432955e+01 1.2849601029480622e+01 1.0435109255969838e+01 -1 0 0
203 6 3.0679965894744896e+01 1.2889241657280021e+01 1.3553247152913553e+01 -1 0 0
204 4 3.1494506569454202e+01 1.4486866957668393e+01 1.1985236869817768e+01 -1 0 0
205 5 8.9552742281560729e+00 1.4589365094749807e+01 1.0439310207599412e+01 0 0 0
206 6 8.9405167332533537e+00 1.4634847031303211e+01 1.3557189980511309e+01 0 0 0
207 4 9.7505173713448396e+00 1.6228205462827724e+01 1.1980090888974486e+01 0 0 0
208 5 1.1541666397952760e+01 1.6335035374703409e+01 1.0422343752962767e+01 0 0 0
209 6 1.1543582979921686e+01 1.6374270176231811e+01 1.3540787188771805e+01 0 0 0
210 4 1.2352443059890378e+01 1.7965108052690272e+01 1.1962602622703754e+01 0 0 0
211 5 1.4147990118751039e+01 1.8075706021305212e+01 1.0402488613234764e+01 0 0 0
212 6 1.4148884648920999e+01 1.8093990038280012e+01 1.3521757805083654e+01 0 0 0
213 4 1.4963490311900365e+01 1.9689589638053036e+01 1.1956412816442826e+01 0 0 0
214 5 1.6771296812850945e+01 1.9807917826093206e+01 1.0404951240399193e+01 0 0 0
215 6 1.6755049965315539e+01 1.9797226995515217e+01 1.3524179278205558e+01 0 0 0
216 4 5.4073521887736229e+00 3.3003505666907240e-01 1.1980089185918144e+01 0 1 0
217 5 7.2242511717161468e+00 4.6075372965494460e-01 1.0439308411409517e+01 0 1 0
218 6 7.1922414119751075e+00 4.2523346913590043e-01 1.3557188249719349e+01 0 1 0
219 4 8.0105609041856844e+00 2.0517563522325526e+00 1.2029669956285943e+01 0 1 0
220 5 9.8244919596858900e+00 2.1946150325205998e+00 1.0490298595484557e+01 0 1 0
221 6 9.7955393497083669e+00 2.1488279181107561e+00 1.3606524728009726e+01 0 1 0
222 5 2.5734733725952335e+01 6.3162466328030229e+00 1.0408480269395906e+01 -1 0 0
223 6 2.5720969308916487e+01 6.3203719116924191e+00 1.3527774552598022e+01 -1 0 0
224 4 2.6518024541393974e+01 7.9304566829533547e+00 1.1971931752928709e+01 -1 0 0
225 5 2.8333737223328885e+01 8.0165329208170775e+00 1.0436655961125371e+01 -1 0 0
226 6 2.8293780445190684e+01 8.0349956825293880e+00 1.3554905559820607e+01 -1 0 0
227 4 2.9104074725104816e+01 9.6411074808755561e+00 1.2000193814788837e+01 -1 0 0
228 5 6.5829262598650349e+00 9.7340213571077712e+00 1.0472442357514778e+01 0 0 0
229 6 6.5385968199115325e+00 9.7682102688325880e+00 1.3589328436165079e+01 0 0 0
230 4 7.3522003974251193e+00 1.1369653056571412e+01 1.2026749115900257e+01 0 0 0
231 5 9.1567226787852540e+00 1.1470560709018933e+01 1.0490300221322050e+01 0 0 0
232 6 9.1315452211120984e+00 1.1518527273574644e+01 1.3606526309902959e+01 0 0 0
233 4 9.9399680989092118e+00 1.3112900159952270e+01 1.2029672137574693e+01 0 0 0
234 5 1.1730946702326843e+01 1.3218634874728988e+01 1.0476014532717119e+01 0 0 0
235 6 1.1733280522963277e+01 1.3270456928752079e+01 1.3592652232283459e+01 0 0 0
236 4 1.2536750663366348e+01 1.4857790274609576e+01 1.2005561517429284e+01 0 0 0
237 5 1.4322803339650056e+01 1.4966983324274398e+01 1.0439508341156341e+01 0 0 0
238 6 1.4340061059253397e+01 1.5005552316016054e+01 1.3557490447280813e+01 0 0 0
239 4 1.5146436672214152e+01 1.6591931260318145e+01 1.1974413921871557e+01 0 0 0
240 5 1.6939496437136395e+01 1.6707461613010114e+01 1.0408481309342603e+01 0 0 0
241 6 1.6949952581023393e+01 1.6717320862822110e+01 1.3527775556163398e+01 0 0 0
242 4 1.7764805521626037e+01 1.8313385991978201e+01 1.1963597813166018e+01 0 0 0
243 5 1.9569213813426252e+01 1.8440489451769771e+01 1.0406602218756953e+01 0 0 0
244 6 1.9561334115689668e+01 1.8417024512753294e+01 1.3525932948688061e+01 0 0 0
245 4 2.0380320606938483e+01 2.0031550147796167e+01 1.1985235789296306e+01 0 0 0
246 5 2.2189145926517995e+01 2.0173104714617597e+01 1.0435108349228955e+01 0 0 0
247 6 2.2171175015025810e+01 2.0124950112819402e+01 1.3553246279553873e+01 0 0 0
248 4 1.0814141396868944e+01 6.8230727072644548e-01 1.2026748106398122e+01 0 1 0
249 5 1.2615277831817927e+01 8.3391207613356844e-01 1.0472442046245586e+01 0 1 0
250 6 1.2607832926786571e+01 7.7842711388286123e-01 1.3589328130351300e+01 0 1 0
251 4 1.3401154764699095e+01 2.4230049487534409e+00 1.2060090739854621e+01 0 1 0
252 5 1.5186532485615389e+01 2.5736417722406535e+00 1.0490629798230534e+01 0 1 0
253 6 1.5205810346365670e+01 2.5276970127305201e+00 1.3606962762152126e+01 0 1 0
254 4 2.4140138937985324e+01 3.1139105071793867e+00 1.1956412868751329e+01 -1 0 0
255 5 2.5945552283195099e+01 3.2146086200239443e+00 1.0402487515541498e+01 -1 0 0
256 6 2.5929272302845526e+01 3.2062413362435791e+00 1.3521756747730249e+01 -1 0 0
257 4 2.6731316579600154e+01 4.8211760377364641e+00 1.1974412230229060e+01 -1 0 0
258 5 4.2134598899214932e+00 4.9203621582889090e+00 1.0439505744878568e+01 0 0 0
259 6 4.1714303876308909e+00 4.9160234031949379e+00 1.3557487945723496e+01 0 0 0
260 4 4.9825474214819909e+00 6.5321274425696174e+00 1.2015875166771311e+01 0 0 0
261 5 6.8039492898422562e+00 6.6373853815393824e+00 1.0490628630307921e+01 0 0 0
262 6 6.7545208517771380e+00 6.6436611634168106e+00 1.3606961624878458e+01 0 0 0
263 4 7.5661828229296901e+00 8.2588853030876219e+00 1.2060090510837194e+01 0 0 0
264 5 9.3766422818288682e+00 8.3709060717644519e+00 1.0528035084701672e+01 0 0 0
265 6 9.3451277668352652e+00 8.3932678128606941e+00 1.3643382891364354e+01 0 0 0
266 4 1.0148449126127639e+01 1.0002375690482621e+01 1.2080067362845222e+01 0 0 0
267 5 1.1941020298195834e+01 1.0116550134829929e+01 1.0528606171745780e+01 0 0 0
268 6 1.1942947721358969e+01 1.0153544473603926e+01 1.3643926567691771e+01 0 0 0
269 4 1.2735516547618133e+01 1.1752468061864453e+01 1.2061692031848397e+01 0 0 0
270 5 1.4514545686852285e+01 1.1865042477914432e+01 1.0490631578447587e+01 0 0 0
271 6 1.4544694741127252e+01 1.1904710622623629e+01 1.3606964485055709e+01 0 0 0
272 4 1.5334089806874196e+01 1.3495051941600567e+01 1.2015878027068279e+01 0 0 0
273 5 1.7112486714599555e+01 1.3606515613104124e+01 1.0436658453294440e+01 0 0 0
274 6 1.7148455237119290e+01 1.3631888611538635e+01 1.3554907956055901e+01 0 0 0
275 4 1.7945798821124715e+01 1.5222007644888516e+01 1.1971933271922451e+01 0 0 0
276 5 1.9734553687318545e+01 1.5337326247402247e+01 1.0398292104925810e+01 0 0 0
277 6 1.9754279434808929e+01 1.5336765559047954e+01 1.3518079970095750e+01 0 0 0
278 4 2.0563248138572170e+01 1.6937586162257194e+01 1.1955766249711008e+01 0 0 0
279 5 2.2362699399301235e+01 1.7063516594365030e+01 1.0393263335695238e+01 0 0 0
280 6 2.2361228411303827e+01 1.7036720777039349e+01 1.3513176838304936e+01 0 0 0
281 4 2.3174536961627449e+01 1.8654853233521521e+01 1.1971430853053501e+01 0 0 0
282 5 2.4975509692743927e+01 1.8793493711045219e+01 1.0414185352407957e+01 0 0 0
283 6 2.4966831480435722e+01 1.8750790350357502e+01 1.3533259666650995e+01 0 0 0
284 4 2.5772088667313806e+01 2.0384254998891468e+01 1.2000193719382997e+01 0 0 0
285 5 2.7564180832737126e+01 2.0529410819676830e+01 1.0436656363440740e+01 0 0 0
286 6 2.7568169205328857e+01 2.0485575101195064e+01 1.3554905948055215e+01 0 0 0
287 4 1.6188389026486472e+01 1.0488905234119446e+00 1.2015876261201150e+01 0 1 0
288 5 1.7968762810200854e+01 1.1887247231327647e+00 1.0439507267206006e+01 0 1 0
289 6 1.7993534511928168e+01 1.1544945543657701e+00 1.3557489423181007e+01 0 1 0
290 4 5.2010504583596679e+00 3.4281915014267286e+00 1.2005558882380866e+01 0 0 0
291 5 7.0235028078315880e+00 3.5499216743513773e+00 1.0476011822555229e+01 0 0 0
292 6 6.9774564621942581e+00 3.5260323525497603e+00 1.3592649605677526e+01 0 0 0
293 4 7.7909558898321087e+00 5.1529880881754648e+00 1.2061689330659274e+01 0 0 0
294 5 9.6049513400447246e+00 5.2828924659588470e+00 1.0528604250209842e+01 0 0 0
295 6 9.5719480839945810e+00 5.2660646683288297e+00 1.3643924685456163e+01 0 0 0
296 4 1.0372869698770362e+01 6.8943082566803842e+00 1.2101638049580945e+01 0 0 0
297 5 1.2168343026640777e+01 7.0253563424147529e+00 1.0550576381715775e+01 0 0 0
298 6 1.2168341958641712e+01 7.0253557004543596e+00 1.3665515897598418e+01 0 0 0
299 4 1.2952587982891146e+01 8.6458049948429672e+00 1.2101639382421629e+01 0 0 0
300 5 1.4729473333102009e+01 8.7702650546278615e+00 1.0528036892216480e+01 0 0 0
301 6 1.4764595714906822e+01 8.7863751381539412e+00 1.3643384659438773e+01 0 0 0
302 4 1.5537689294530477e+01 1.0394178890625675e+01 1.2060093139610926e+01 0 0 0
303 5 1.7306822727122913e+01 1.0508136490058002e+01 1.0472444968799248e+01 0 0 0
304 6 1.7358596152420738e+01 1.0529431985129310e+01 1.3589330957863297e+01 0 0 0
305 4 1.8134241608510877e+01 1.2127096936575853e+01 1.2000196332446057e+01 0 0 0
306 5 1.9910170321741425e+01 1.2232620491558903e+01 1.0414187664925084e+01 0 0 0
307 6 1.9951492498974883e+01 1.2246457216385361e+01 1.3533261887147258e+01 0 0 0
308 4 2.0741556761000478e+01 1.3842500310787393e+01 1.1954216954664114e+01 0 0 0
309 5 2.2531399738299516e+01 1.3948013932637437e+01 1.0381542461665166e+01 0 0 0
310 6 2.2545954239608250e+01 1.3947758711485957e+01 1.3501968970855529e+01 0 0 0
311 4 2.3351217893867322e+01 1.5551465708491882e+01 1.1940816996612726e+01 0 0 0
312 5 2.5150468767097827e+01 1.5665745962163653e+01 1.0381541634782328e+01 0 0 0
313 6 2.5142970869188638e+01 1.5653270291669708e+01 1.3501968176917545e+01 0 0 0
314 4 2.5954013291412998e+01 1.7268552617490904e+01 1.1954215418097354e+01 0 0 0
315 5 2.7752072445326654e+01 1.7393228810565045e+01 1.0398290926537983e+01 0 0 0
316 6 2.7741723365228239e+01 1.7376427287087569e+01 1.3518078836587005e+01 0 0 0
317 4 2.8546581201882482e+01 1.8999995568704332e+01 1.1971931866408918e+01 0 0 0
318 5 3.0336173832107953e+01 1.9128751429969210e+01 1.0408480639085697e+01 0 0 0
319 6 3.0339482997681035e+01 1.9114767428854520e+01 1.3527774918602034e+01 0 0 0
320 4 3.1132651371007725e+01 2.0739352267155056e+01 1.1974413262197402e+01 0 0 0
321 5 3.2916861572202492e+01 2.0862144998246041e+01 1.0402488492702032e+01 0 0 0
322 6 3.2932248027681361e+01 2.0852229012493780e+01 1.3521757697974957e+01 0 0 0
323 4 2.1550394480003064e+01 1.3960447135171794e+00 1.1962602409215901e+01 0 1 0
324 4 1.0600114235991786e+01 3.7875677867100772e+00 1.2080066029715024e+01 0 0 0
325 5 1.2398912858081474e+01 3.9348981226384692e+00 1.0528034890238740e+01 0 0 0
326 6 1.2395302420796547e+01 3.8964247905953151e+00 1.3643382699206299e+01 0 0 0
327 4 1.3179569745154481e+01 5.5359551124558513e+00 1.2101638604107640e+01 0 0 0
328 5 1.4959056880945544e+01 5.6766266254978470e+00 1.0528606000422405e+01 0 0 0
329 6 1.4990130101828678e+01 5.6564585722493055e+00 1.3643926402433271e+01 0 0 0
330 4 1.5756463797756409e+01 7.2861252645196375e+00 1.2080068448017084e+01 0 0 0
331 5 1.7523812779959474e+01 7.4108939288737670e+00 1.0490301605858406e+01 0 0 0
332 6 1.7577941340459077e+01 7.4087136343822628e+00 1.3606527652723713e+01 0 0 0
333 4 1.8338684620325264e+01 9.0241094957074068e+00 1.2026751205848509e+01 0 0 0
334 5 2.0108574421847457e+01 9.1297536875557785e+00 1.0435111106882761e+01 0 0 0
335 6 2.0159263935695616e+01 9.1382677004931061e+00 1.3553248928461523e+01 0 0 0
336 4 2.0930723675907437e+01 1.0742253180968287e+01 1.1971433089286524e+01 0 0 0
337 5 2.2714779543401882e+01 1.0834850237867126e+01 1.0393264562880233e+01 0 0 0
338 6 2.2738722697168008e+01 1.0846974117288374e+01 1.3513178009145111e+01 0 0 0
339 4 2.3529995865974385e+01 1.2446957578276123e+01 1.1940817555505296e+01 0 0 0
340 5 2.5328534282410825e+01 1.2538700354332704e+01 1.0381541984499339e+01 0 0 0
341 6 2.5321479596665856e+01 1.2551432093737777e+01 1.3501968513343316e+01 0 0 0
342 4 2.6129190296991048e+01 1.4154037570880721e+01 1.1940816816282339e+01 0 0 0
343 5 2.7932924275348491e+01 1.4254093234445838e+01 1.0393263310455737e+01 0 0 0
344 6 2.7910453634322813e+01 1.4268765841085926e+01 1.3513176810564008e+01 0 0 0
345 4 2.8723590890985612e+01 1.5875429156757564e+01 1.1955765939908854e+01 0 0 0
346 4 3.1314290018282747e+01 1.7611051155347486e+01 1.1963598019061935e+01 0 0 0
347 4 1.5978554481674992e+01 4.1706128707337795e+00 1.2061691250670677e+01 0 0 0
348 5 1.7750577598781913e+01 4.3075132214576248e+00 1.0476014294397782e+01 0 0 0
349 6 1.7794288965983529e+01 4.2795799297189783e+00 1.3592652005928480e+01 0 0 0
350 4 1.8554497476746281e+01 5.9114130889496339e+00 1.2029672813677575e+01 0 0 0
351 5 2.0325500565228182e+01 6.0259514421011255e+00 1.0439310939596238e+01 0 0 0
352 6 2.0372267765481162e+01 6.0159898013232125e+00 1.3557190679750747e+01 0 0 0
353 4 2.1135577617196720e+01 7.6340424794573734e+00 1.1985238080271335e+01 0 0 0
354 5 2.2919028987597951e+01 7.7271347048282601e+00 1.0406603380775339e+01 0 0 0
355 6 2.2943292030120304e+01 7.7320427123367459e+00 1.3525934052638636e+01 0 0 0
356 4 2.3723565271478805e+01 9.3394450464840588e+00 1.1955766831332475e+01 0 0 0
357 5 2.5523777312386215e+01 9.4219048986749510e+00 1.0398291358026919e+01 0 0 0
358 6 2.5514401977914758e+01 9.4392677143922441e+00 1.3518079250702602e+01 0 0 0
359 4 2.6314834217771999e+01 1.1041407576398415e+01 1.1954215820350967e+01 0 0 0
360 4 1.8767224997391963e+01 2.7900881733994489e+00 1.2005560971476868e+01 0 0 0
361 5 2.0544099111122424e+01 2.9132345218753657e+00 1.0422343528511460e+01 0 0 0
362 6 2.0577118676805568e+01 2.8919569547076236e+00 1.3540786973311162e+01 0 0 0
363 4 2.1347156166281390e+01 4.5178299144912177e+00 1.1980091035922872e+01 0 0 0
364 5 2.3133759885379781e+01 4.6203532530800056e+00 1.0404952048778531e+01 0 0 0
365 6 2.3151143612575805e+01 4.6116279883142850e+00 1.3524180045718689e+01 0 0 0
366 4 2.3931308907022157e+01 6.2280227436375268e+00 1.1963598139966276e+01 0 0 0
