LAMMPS data file via write_data, version 30 Mar 2018, timestep = 846

222 atoms
6 atom types

0.0000000000000000e+00 1.8954028000000001e+01 xlo xhi
0.0000000000000000e+00 1.6414670999999998e+01 ylo yhi
0.0000000000000000e+00 1.0000000000000000e+02 zlo zhi
9.4770129999999995e+00 0.0000000000000000e+00 0.0000000000000000e+00 xy xz yz

Masses

1 95.94
2 32.066
3 32.066
4 95.94
5 32.066
6 32.066

Atoms # atomic

1 2 1.7165175564011808e+01 1.3982841538522617e-01 4.1412923910504071e+00 -1 1 0
2 3 1.7153245657618825e+01 1.4396862895724225e-01 7.2614276968103004e+00 -1 1 0
3 2 1.0154521576082631e+00 1.4790770079176214e+00 4.1412921907245170e+00 0 1 0
4 3 1.0250029559157314e+00 1.4873386724067665e+00 7.2614274822855363e+00 0 1 0
5 2 2.3563695891317039e+01 1.2139935808100352e+01 4.1322907497921797e+00 -1 0 0
6 3 2.3577662158234023e+01 1.2136018462353009e+01 7.2523252939183163e+00 -1 0 0
7 2 2.6391193117652215e+01 1.3469183376704922e+01 4.1329445228401545e+00 -1 0 0
8 3 2.6394850231682771e+01 1.3453767530955782e+01 7.2525858024605423e+00 -1 0 0
9 1 2.5609743928845241e+01 1.5081606178690411e+01 5.6984839991554654e+00 -1 0 0
10 2 1.0250136148517209e+01 1.4795524203901332e+01 4.1412923587387453e+00 0 0 0
11 3 1.0252515648569050e+01 1.4783122545515274e+01 7.2614276652710146e+00 0 0 0
12 1 2.8430948759646338e+01 1.6414590545800817e+01 5.7057138529381426e+00 -1 0 0
13 2 1.3047595639792741e+01 1.6120813496008747e+01 4.1329442304998247e+00 0 0 0
14 3 1.3059117614466878e+01 1.6131688897265171e+01 7.2525854930762064e+00 0 0 0
15 1 2.8123178509676903e+00 1.3411888912436136e+00 5.6907419216861639e+00 0 1 0
16 2 6.3738543407986086e+00 1.0286603779565819e+00 4.1004923187562197e+00 0 1 0
17 3 6.3865220502665405e+00 1.0627401060497184e+00 7.2175881188382727e+00 0 1 0
18 1 5.6226893272900869e+00 2.6774645533296386e+00 5.6488717790603680e+00 0 1 0
19 2 9.2006828906031384e+00 2.3485198898398698e+00 4.0685295947539455e+00 0 1 0
20 3 9.1948829180919365e+00 2.3834033165814170e+00 7.1830732077983868e+00 0 1 0
21 2 2.0486924417475720e+01 7.7043437940077881e+00 4.1345815199057832e+00 -1 0 0
22 3 2.0510626254209509e+01 7.6982560967378335e+00 7.2548040576541766e+00 -1 0 0
23 2 2.3302521886561639e+01 9.0491055987528508e+00 4.1135879217656557e+00 -1 0 0
24 3 2.3339649989212170e+01 9.0376690341223416e+00 7.2319644566700410e+00 -1 0 0
25 1 2.2543823062451189e+01 1.0663246833700599e+01 5.6921884366566751e+00 -1 0 0
26 2 7.1808636234841625e+00 1.0380219801370048e+01 4.1004927279033092e+00 0 0 0
27 3 7.2040433418671954e+00 1.0352209261105697e+01 7.2175885567550768e+00 0 0 0
28 1 2.5365755593641300e+01 1.1987723142656407e+01 5.6825692478145147e+00 -1 0 0
29 2 1.0009399264645879e+01 1.1701009609390663e+01 4.1122674025248651e+00 0 0 0
30 3 1.0011676688989013e+01 1.1664089516153126e+01 7.2300378706018744e+00 0 0 0
31 1 9.2322890246000000e+00 1.3308336875281590e+01 5.6907423425439445e+00 0 0 0
32 2 1.2816870329766985e+01 1.3018633604314102e+01 4.1316302337013902e+00 0 0 0
33 3 1.2811355460901787e+01 1.2998505443557054e+01 7.2512456473648070e+00 0 0 0
34 1 1.2041921383600794e+01 1.4637847288317349e+01 5.6984839138878796e+00 0 0 0
35 2 1.5612506544447921e+01 1.4336752523538012e+01 4.1322906801343260e+00 0 0 0
36 3 1.5608915847568788e+01 1.4350806717847277e+01 7.2523252249756354e+00 0 0 0
37 1 1.4843296580423466e+01 1.5973488516278699e+01 5.6825689460286712e+00 0 0 0
38 2 1.8419831090915316e+01 1.5655984183759847e+01 4.1135878534623336e+00 0 0 0
39 3 1.8411171190669329e+01 1.5693856431478549e+01 7.2319643819076491e+00 0 0 0
40 1 8.1724053470524307e+00 8.8849482648516165e-01 5.6496950733741889e+00 0 1 0
41 2 1.1771576928361494e+01 5.6405793008101068e-01 4.1008112723201835e+00 0 1 0
42 3 1.1746918815756564e+01 5.9915399680265324e-01 7.2178046188954461e+00 0 1 0
43 1 1.0992921420088184e+01 2.2087295930155268e+00 5.6317757591217843e+00 0 1 0
44 2 1.4605616220795707e+01 1.8955702603756213e+00 4.1122673407182750e+00 0 1 0
45 3 1.4572503675885480e+01 1.9120577168295909e+00 7.2300378021852891e+00 0 1 0
46 2 2.0224945170327601e+01 4.5903795103688880e+00 4.1316299555203502e+00 -1 0 0
47 3 2.0245134663397774e+01 4.5956677155193493e+00 7.2512453385673599e+00 -1 0 0
48 1 1.9473886260612304e+01 6.2187351368413291e+00 5.6956041381191351e+00 -1 0 0
49 2 4.0796450710416945e+00 5.9379561809172650e+00 4.1008110178200399e+00 0 0 0
50 3 4.1223683221626191e+00 5.9417624045278590e+00 7.2178043470987276e+00 0 0 0
51 1 2.2292036653438217e+01 7.5652052701657535e+00 5.6759903117205148e+00 -1 0 0
52 2 6.9104814552539029e+00 7.2721847026091764e+00 4.0685296660418251e+00 0 0 0
53 3 6.9435911759617532e+00 7.2597654418985220e+00 7.1830732855503605e+00 0 0 0
54 1 6.1602012632909151e+00 8.8927115370928487e+00 5.6496952871970540e+00 0 0 0
55 2 9.7524097889246555e+00 8.5940296410709927e+00 4.0682741853780673e+00 0 0 0
56 3 9.7555563086634471e+00 8.5599084179445661e+00 7.1827071704165331e+00 0 0 0
57 1 8.9843521912567219e+00 1.0206345581346895e+01 5.6488723973699102e+00 0 0 0
58 2 1.2579542380950301e+01 9.9124154243759648e+00 4.1008117157650172e+00 0 0 0
59 3 1.2561477079959353e+01 9.8735129926952663e+00 7.2178051046655742e+00 0 0 0
60 1 1.1800069427849362e+01 1.1523804227479570e+01 5.6740937238143152e+00 0 0 0
61 2 1.5382652713809241e+01 1.1234770683307728e+01 4.1345818301950503e+00 0 0 0
62 3 1.5365529891409210e+01 1.1217288638795388e+01 7.2548044009017323e+00 0 0 0
63 1 1.4602597148747135e+01 1.2854892121100420e+01 5.6956042497424608e+00 0 0 0
64 2 1.8179737756400954e+01 1.2561550177781346e+01 4.1437159959679013e+00 0 0 0
65 3 1.8172747624030212e+01 1.2573129252762961e+01 7.2649034452317363e+00 0 0 0
66 1 1.7401293103551005e+01 1.4191861238361515e+01 5.6921883992444897e+00 0 0 0
67 2 2.0992227815507199e+01 1.3889986159568597e+01 4.1345814964816467e+00 0 0 0
68 3 2.0985649049789743e+01 1.3913556233038943e+01 7.2548040309922612e+00 0 0 0
69 1 2.0210169017818664e+01 1.5522828341896588e+01 5.6759903748137912e+00 0 0 0
70 2 2.3819989492932095e+01 1.5220087501716090e+01 4.1316301263060762e+00 0 0 0
71 3 2.3805315104239490e+01 1.5234927647501340e+01 7.2512455205105502e+00 0 0 0
72 1 1.3556816851561880e+01 4.3340680500992895e-01 5.6740934787043376e+00 0 1 0
73 1 1.6386157443267340e+01 1.7649037712554938e+00 5.6907423450775765e+00 0 1 0
74 1 1.9210139956466371e+01 3.1096471358978603e+00 5.6984838641169837e+00 -1 0 0
75 2 3.8157487552601044e+00 2.8178496864101081e+00 4.1122668060752590e+00 0 0 0
76 3 3.8465838754793151e+00 2.8382822491358906e+00 7.2300372260211088e+00 0 0 0
77 1 3.0738780586978125e+00 4.4572184098728798e+00 5.6740930981242830e+00 0 0 0
78 2 6.6349672365413106e+00 4.1487798459835918e+00 4.0682736199300669e+00 0 0 0
79 3 6.6629434167632731e+00 4.1685654365248785e+00 7.1827065660047209e+00 0 0 0
80 1 5.8933002592314683e+00 5.7899554662130068e+00 5.6317754919427943e+00 0 0 0
81 2 9.4769216913323895e+00 5.4714764606392920e+00 4.0467561911412231e+00 0 0 0
82 3 9.4769214113432447e+00 5.4714761994395511e+00 7.1597465862834140e+00 0 0 0
83 1 8.7189990079664472e+00 7.1045149717968066e+00 5.6104761737679549e+00 0 0 0
84 2 1.2319600446397516e+01 6.7937248477359686e+00 4.0685301788977704e+00 0 0 0
85 3 1.2292290135089013e+01 6.7712601587583290e+00 7.1830738363145326e+00 0 0 0
86 1 1.1544542846864680e+01 8.4157440771071865e+00 5.6317761932155612e+00 0 0 0
87 2 1.5139452232525423e+01 8.1240107906135375e+00 4.1135884899363075e+00 0 0 0
88 3 1.5110984021511065e+01 8.0975751742980240e+00 7.2319650755291214e+00 0 0 0
89 1 1.4359599566986972e+01 9.7410668866594801e+00 5.6759909387091820e+00 0 0 0
90 2 1.7939357046712125e+01 9.4633008837869479e+00 4.1437161888646985e+00 0 0 0
91 3 1.7932824799621422e+01 9.4514579480286471e+00 7.2649036548734935e+00 0 0 0
92 1 1.7163962782950321e+01 1.1081995374800574e+01 5.7050507952819567e+00 0 0 0
93 2 2.0742710025322392e+01 1.0804249602426827e+01 4.1437159606458653e+00 0 0 0
94 3 2.0756232765996927e+01 1.0804513939836026e+01 7.2649034055119950e+00 0 0 0
95 1 1.9969265429564043e+01 1.2423714130022752e+01 5.7050505709140360e+00 0 0 0
96 1 2.2785321754825542e+01 1.3755473378231889e+01 5.6956040978394880e+00 0 0 0
97 1 8.4416299599253506e+00 3.9985768749523554e+00 5.6104759246926870e+00 0 0 0
98 2 1.2043387774402456e+01 3.6716199513040411e+00 4.0682741175668440e+00 0 0 0
99 3 1.2012264510377634e+01 3.6859550338007474e+00 7.1827070978799492e+00 0 0 0
100 1 1.1270135673571172e+01 5.3113371319987319e+00 5.6104763509147171e+00 0 0 0
101 2 1.4876046423108660e+01 5.0055493443388421e+00 4.1004930317790933e+00 0 0 0
102 3 1.4840198837521477e+01 4.9994799938691017e+00 7.2175888892349063e+00 0 0 0
103 1 1.4098157803491686e+01 6.6332229145600996e+00 5.6496958393891248e+00 0 0 0
104 2 1.7685602544377478e+01 6.3524122914227164e+00 4.1322909947164623e+00 0 0 0
105 3 1.7675227203419531e+01 6.3422757096184919e+00 7.2523255633247379e+00 0 0 0
106 1 1.6916688963727061e+01 7.9739925588530651e+00 5.6921888522001529e+00 0 0 0
107 1 1.9728576810583007e+01 9.3233912421860694e+00 5.7050506569910793e+00 0 0 0
108 1 1.3823722953470273e+01 3.5306191117766281e+00 5.6488724699264425e+00 0 0 0
109 2 1.7423016220603383e+01 3.2391037361220012e+00 4.1329445557224131e+00 0 0 0
110 3 1.7407837400174738e+01 3.2436443441428300e+00 7.2525858428656376e+00 0 0 0
111 1 1.6652753112833096e+01 4.8678888476559141e+00 5.6825694827034372e+00 0 0 0
112 5 1.7928837633793204e+01 1.4873421793645227e+00 1.0417620953746777e+01 -1 1 0
113 6 1.7938388081076980e+01 1.4790806253027104e+00 1.3537756258008789e+01 -1 1 0
114 5 2.2542337298304520e+01 1.1217292213582482e+01 1.0424244512320632e+01 -1 0 0
115 6 2.2525214423687778e+01 1.1234774556895067e+01 1.3544467051875253e+01 -1 0 0
116 4 2.3305269777110006e+01 1.2854895966218175e+01 1.1983444502484742e+01 -1 0 0
117 5 2.5096511391716877e+01 1.2998509186322599e+01 1.0427803032553811e+01 -1 0 0
118 6 2.5090996659138625e+01 1.3018637578415136e+01 1.3547418431326768e+01 -1 0 0
119 4 2.5865945390620844e+01 1.4637851172235946e+01 1.1980564613135991e+01 -1 0 0
120 5 8.7013232044967150e+00 1.4783126309133850e+01 1.0417620875693732e+01 0 0 0
121 6 8.7037026389851544e+00 1.4795527969894836e+01 1.3537756183121724e+01 0 0 0
122 4 2.8430945950501723e+01 1.6414594291872646e+01 1.1973334762751501e+01 -1 0 0
123 5 1.8005952590895384e+00 1.4397236474456621e-01 1.0417621103474403e+01 0 1 0
124 6 1.7886650538384608e+00 1.3983195981225502e-01 1.3537756394312533e+01 0 1 0
125 4 2.5676831398635942e+00 1.7649074508258653e+00 1.1988306683172556e+01 0 1 0
126 5 4.3813369976872689e+00 1.9120615545943396e+00 1.0449011360761101e+01 0 1 0
127 6 4.3482243117524906e+00 1.8955738817463008e+00 1.3566781779839204e+01 0 1 0
128 5 2.0232640944830028e+01 6.3422790633491850e+00 1.0426723321844998e+01 -1 0 0
129 6 2.0222265051766609e+01 6.3524158037635310e+00 1.3546757869585345e+01 -1 0 0
130 4 2.0991178666772115e+01 7.9739961204262535e+00 1.1986860152196707e+01 -1 0 0
131 5 2.2796883655257030e+01 8.0975787718646046e+00 1.0447084116216208e+01 -1 0 0
132 6 2.2768415301651441e+01 8.1240145821345937e+00 1.3565460651859713e+01 -1 0 0
133 4 2.3548267804929512e+01 9.7410707092616988e+00 1.2003058151377305e+01 -1 0 0
134 5 6.3923621484800845e+00 9.8735168896482612e+00 1.0461243867841311e+01 0 0 0
135 6 6.3742971161785347e+00 9.9124194536916672e+00 1.3578237222896508e+01 0 0 0
136 4 7.1537697729688423e+00 1.1523808234055611e+01 1.2004955056614888e+01 0 0 0
137 5 8.9421624134895890e+00 1.1664093542006910e+01 1.0449010709928373e+01 0 0 0
138 6 8.9444401050530740e+00 1.1701013550048836e+01 1.3566781177509105e+01 0 0 0
139 4 9.7215501049836313e+00 1.3308340826974607e+01 1.1988306222316078e+01 0 0 0
140 5 1.1513016966938512e+01 1.3453771505472996e+01 1.0426462715964259e+01 0 0 0
141 6 1.1516674060356213e+01 1.3469187037266501e+01 1.3546104004371944e+01 0 0 0
142 4 1.2298123106372131e+01 1.5081609992946287e+01 1.1980564741820102e+01 0 0 0
143 5 1.4102552016501644e+01 1.5234931571855990e+01 1.0427803269130825e+01 0 0 0
144 6 1.4087877513419915e+01 1.5220091064477767e+01 1.3547418649049304e+01 0 0 0
145 4 5.3970239407202980e+00 4.3341063698088145e-01 1.2004955540354732e+01 0 1 0
146 5 7.2069218677714870e+00 5.9915799443880313e-01 1.0461244297160123e+01 0 1 0
147 6 7.1822639232181995e+00 5.6406171402422178e-01 1.3578237621318831e+01 0 1 0
148 4 7.9609190196438204e+00 2.2087336143656033e+00 1.2047273166677167e+01 0 1 0
149 5 9.7589572327527243e+00 2.3834073905871382e+00 1.0495975375503040e+01 0 1 0
150 6 9.7531577450442786e+00 2.3485239481483862e+00 1.3610518990185195e+01 0 1 0
151 4 1.8697728319662680e+01 3.1096507122009558e+00 1.1980564713356310e+01 -1 0 0
152 5 2.0500031160189899e+01 3.2436478323273885e+00 1.0426463083064196e+01 -1 0 0
153 6 2.0484851839462664e+01 3.2391072331829927e+00 1.3546104346209706e+01 -1 0 0
154 4 2.1255114984427898e+01 4.8678924291103067e+00 1.1996479623913268e+01 -1 0 0
155 5 4.1136413400937100e+00 4.9994836993409475e+00 1.0461460410502474e+01 0 0 0
156 6 4.0777935915160501e+00 5.0055530530732621e+00 1.3578556214642425e+01 0 0 0
157 4 4.8556820426776142e+00 6.6332267473270887e+00 1.2029353453544747e+01 0 0 0
158 5 6.6615495242906455e+00 6.7712641849649469e+00 1.0495975295253297e+01 0 0 0
159 6 6.6342395613098528e+00 6.7937288741397088e+00 1.3610518914028399e+01 0 0 0
160 4 7.4092967798815188e+00 8.4157481727590078e+00 1.2047272757947074e+01 0 0 0
161 5 9.1982830639725535e+00 8.5599126082507357e+00 1.0496341410982030e+01 0 0 0
162 6 9.2014301103377640e+00 8.5940337254384076e+00 1.3610774396685606e+01 0 0 0
163 4 9.9694873073267019e+00 1.0206349700652483e+01 1.2030176070793846e+01 0 0 0
164 5 1.1749796076010108e+01 1.0352213361709193e+01 1.0461459653469895e+01 0 0 0
165 6 1.1772976030872989e+01 1.0380223621182358e+01 1.3578555513830242e+01 0 0 0
166 4 1.2542111804474292e+01 1.1987727075809264e+01 1.1996479103576968e+01 0 0 0
167 5 1.4330205317216588e+01 1.2136022365026848e+01 1.0426723028639387e+01 0 0 0
168 6 1.4344171480361418e+01 1.2139939372777311e+01 1.3546757595969714e+01 0 0 0
169 4 1.5122545430915537e+01 1.3755477169503420e+01 1.1983444500880411e+01 0 0 0
170 5 1.6922218150757963e+01 1.3913560053529507e+01 1.0424244583714765e+01 0 0 0
171 6 1.6915639302306797e+01 1.3889989786045696e+01 1.3544467116472694e+01 0 0 0
172 4 1.7697697810735320e+01 1.5522832201698630e+01 1.2003058372760970e+01 0 0 0
173 5 1.9496695481167478e+01 1.5693860274453213e+01 1.0447084220570101e+01 0 0 0
174 6 1.9488035775099931e+01 1.5655988084996032e+01 1.3565460748765613e+01 0 0 0
175 4 1.0781435103263396e+01 8.8849882939164926e-01 1.2029353422378014e+01 0 1 0
176 5 1.2567318210860474e+01 1.0627439127085354e+00 1.0461460131470268e+01 0 1 0
177 6 1.2579986205319974e+01 1.0286644030386758e+00 1.3578555953716892e+01 0 1 0
178 4 1.3331150857071442e+01 2.6774685213881542e+00 1.2030176306949505e+01 0 1 0
179 4 5.1301173740649881e+00 3.5306229554045565e+00 1.2030176808701567e+01 0 0 0
180 5 6.9415756363064300e+00 3.6859591025398397e+00 1.0496342015530029e+01 0 0 0
181 6 6.9104526978481378e+00 3.6716238888825599e+00 1.3610774961699285e+01 0 0 0
182 4 7.6837043639079852e+00 5.3113412372561335e+00 1.2068572653032493e+01 0 0 0
183 5 9.4769183005081121e+00 5.4714804011251816e+00 1.0519301992664818e+01 0 0 0
184 6 9.4769186306270861e+00 5.4714805915549825e+00 1.3632292388583171e+01 0 0 0
185 4 1.0234840808074175e+01 7.1045191613698373e+00 1.2068572230382594e+01 0 0 0
186 5 1.2010248447253273e+01 7.2597695298211873e+00 1.0495974745979517e+01 0 0 0
187 6 1.2043358559643764e+01 7.2721886658672101e+00 1.3610518404061455e+01 0 0 0
188 4 1.2793638406886323e+01 8.8927155371806386e+00 1.2029352757197501e+01 0 0 0
189 5 1.4568217750113451e+01 9.0376728234177666e+00 1.0447083515027213e+01 0 0 0
190 6 1.4605345748726489e+01 9.0491092246255000e+00 1.3565460100254825e+01 0 0 0
191 4 1.5364044428020581e+01 1.0663250569990177e+01 1.1986859767561906e+01 0 0 0
192 5 1.7151634879111580e+01 1.0804517529541586e+01 1.0414144948123964e+01 0 0 0
193 6 1.7165157280049357e+01 1.0804253121360222e+01 1.3535332412711060e+01 0 0 0
194 4 1.7938601754846506e+01 1.2423717806532800e+01 1.1973997990258885e+01 0 0 0
195 5 1.9735119582789928e+01 1.2573132840614969e+01 1.0414145213882401e+01 0 0 0
196 6 1.9728129297993039e+01 1.2561553904818199e+01 1.3535332656838692e+01 0 0 0
197 4 2.0506573711525519e+01 1.4191865050162971e+01 1.1986860236304262e+01 0 0 0
198 5 2.2298950864445473e+01 1.4350810373419025e+01 1.0426723341243786e+01 0 0 0
199 6 2.2295360273711040e+01 1.4336756481518321e+01 1.3546757883155133e+01 0 0 0
200 4 2.3064569942845516e+01 1.5973492419651041e+01 1.1996479437551917e+01 0 0 0
201 5 2.4848748895466333e+01 1.6131692525712943e+01 1.0426462836552433e+01 0 0 0
202 6 2.4860270888884671e+01 1.6120817392146442e+01 1.3546104113396371e+01 0 0 0
203 4 1.6141522524280209e+01 1.3411926661641140e+00 1.1988306328645885e+01 0 1 0
204 4 1.0512210162648090e+01 3.9985810199713132e+00 1.2068572489912938e+01 0 0 0
205 5 1.2290896477806960e+01 4.1685694079872109e+00 1.0496341485477618e+01 0 0 0
206 6 1.2318873057723749e+01 4.1487838821236105e+00 1.3610774466545731e+01 0 0 0
207 4 1.3060539651031556e+01 5.7899594751861239e+00 1.2047272459461036e+01 0 0 0
208 5 1.4831471639402828e+01 5.9417660698605124e+00 1.0461243524804035e+01 0 0 0
209 6 1.4874194798066481e+01 5.9379598989762465e+00 1.3578236910749798e+01 0 0 0
210 4 1.5615831096167881e+01 7.5652089713149921e+00 1.2003057690596632e+01 0 0 0
211 5 1.7397241749620100e+01 7.6982595012687582e+00 1.0424244189316468e+01 0 0 0
212 6 1.7420943084591936e+01 7.7043472782909470e+00 1.3544466759445854e+01 0 0 0
213 4 1.8179290708387686e+01 9.3233947797624079e+00 1.1973997810211324e+01 0 0 0
214 5 1.9975042900140508e+01 9.4514613454728007e+00 1.0414145111030965e+01 0 0 0
215 6 1.9968510225331556e+01 9.4633044731382192e+00 1.3535332562974020e+01 0 0 0
216 4 2.0743904423170900e+01 1.1081999019400506e+01 1.1973998023798854e+01 0 0 0
217 5 1.5107256333223694e+01 2.8382858477764272e+00 1.0449010795759357e+01 0 0 0
218 6 1.5138091398143775e+01 2.8178534969136968e+00 1.3566781258381441e+01 0 0 0
219 4 1.5879961971722789e+01 4.4572221209216307e+00 1.2004954941772237e+01 0 0 0
220 5 1.7662733642921761e+01 4.5956710812251558e+00 1.0427802965477307e+01 0 0 0
221 6 1.7682922628865853e+01 4.5903830308815703e+00 1.3547418376915823e+01 0 0 0
222 4 1.8433981612146649e+01 6.2187386348161917e+00 1.1983444355980009e+01 0 0 0

Velocities

1 -9.2584958461798494e-07 1.3939082182049242e-06 9.9887707273827329e-06
2 8.9069237316380757e-07 5.7398900224151826e-07 8.8583960950849071e-06
3 1.6661653910153924e-06 1.0662809707353960e-07 9.9893425659972131e-06
4 4.7339330128682957e-08 -1.0568551284137888e-06 8.8589358309934720e-06
5 4.3694305564041955e-07 -1.8059730999274309e-06 1.4222652572122084e-05
6 -1.9324435550494693e-06 -1.6884963372424595e-06 1.3474193558828631e-05
7 -1.3355781607328431e-06 -2.0223341769599149e-06 1.3563878397461683e-05
8 -1.9240650465335520e-06 1.4082710172678840e-07 1.2594967324743322e-05
9 6.5766548264704996e-07 8.0992363472658173e-07 -5.2672492351991052e-05
10 -7.4459665827390164e-07 -1.4941681412246670e-06 9.9888412547990916e-06
11 -9.4293205878395328e-07 4.8888206963426521e-07 8.8584101615587856e-06
12 -1.9515755349227211e-09 2.5286159282764693e-09 -5.1913316667606961e-05
13 2.4189447601757945e-06 -1.4068338209958754e-07 1.3564789665884636e-05
14 8.3980240947229365e-07 -1.7324304161156460e-06 1.2595806629446868e-05
15 4.9521988490036485e-07 -2.3993531779988595e-06 -5.3755015624623587e-05
16 4.5860419184786943e-06 1.9776868090278585e-06 2.7421568735616199e-05
17 3.0808174919969563e-06 -3.5643273040640682e-06 2.7278944490973714e-05
18 1.1901338876724256e-06 -3.5449591334746741e-06 -5.9578290186983876e-05
19 2.6323636049235489e-06 3.9739945033234070e-06 4.1118228434403156e-05
20 4.1464284104089536e-06 -1.9316366828871384e-06 4.2206439471295552e-05
21 1.4962003189760630e-06 -2.2503345710926612e-06 1.3459351651621113e-05
22 -2.7265406752615451e-06 -1.1140149587789295e-06 1.2712521167068145e-05
23 2.1341332852076374e-06 -4.3081002577103522e-06 2.2203225354467997e-05
24 -4.2778432311741336e-06 -2.7632958604767924e-06 2.1859164906177731e-05
25 -1.1834105890301926e-06 -2.0511792809152714e-06 -5.3545664577542781e-05
26 -5.8487607548194908e-07 -4.9584724413653265e-06 2.7420262224490960e-05
27 -4.6312207501759922e-06 -8.8372183577573725e-07 2.7277697801523158e-05
28 -1.9629533169788416e-06 -6.0738106225255655e-07 -5.4818608861164946e-05
29 -3.0481600283988828e-06 -3.9295028105271705e-06 2.2253855021659565e-05
30 -3.2125773265104425e-06 1.9324714556941372e-06 2.1629278084052414e-05
31 -2.3305073712065368e-06 7.7316392632133568e-07 -5.3755190687966776e-05
32 -1.8620293758681714e-06 -1.5705430228334737e-06 1.4223797646562638e-05
33 -4.9348972049486904e-07 1.7989699757466897e-06 1.3306563417875237e-05
34 -1.0306944317803655e-06 1.7030627813336880e-07 -5.2672436165720687e-05
35 1.3452186683954088e-06 1.2863016852013361e-06 1.4222983629812520e-05
36 2.4282971821087136e-06 -8.2501215754363368e-07 1.3474427706504398e-05
37 1.5071712187065819e-06 -1.3905385195372130e-06 -5.4818525903367610e-05
38 2.6631845281327868e-06 4.0070956428432867e-06 2.2203564886060997e-05
39 4.5316564747392256e-06 -2.3184334760821652e-06 2.1859434302690669e-05
40 3.4753129101741263e-06 -1.4735971777997420e-06 -5.9531472318882454e-05
41 5.9448978729177997e-07 5.4108266620200995e-06 2.7350154542757559e-05
42 4.7281476472045308e-06 -6.6479027872290478e-07 2.7176892020720674e-05
43 3.8130493856107002e-06 6.7234663208246466e-07 -6.2087324880860255e-05
44 -1.8834758454943867e-06 4.6063219677219160e-06 2.2254132332452509e-05
45 3.2754769327239163e-06 1.8181640620890476e-06 2.1629632284225203e-05
46 2.2910863078914572e-06 -8.2306519702943796e-07 1.4224575692650314e-05
47 -1.3121210675461643e-06 -1.3228342412327982e-06 1.3307432670642859e-05
48 -9.5820966968723851e-07 -1.3692454259412038e-06 -5.2923379091083714e-05
49 4.3842186387778138e-06 -3.2187297505712122e-06 2.7350784863142787e-05
50 -2.9443867527031698e-06 -3.7603471423442252e-06 2.7177531533299984e-05
51 -1.9614373985263203e-06 -3.5572401202356694e-06 -5.5668901225218994e-05
52 2.1206093319569022e-06 -4.2650533895098963e-06 4.1117905791154396e-05
53 -3.7505234678760502e-06 -2.6227377795052092e-06 4.2206136578140679e-05
54 -3.0192232146593393e-06 -2.2703811037024182e-06 -5.9531475502931012e-05
55 -2.8078727265201064e-06 -3.8569853805242884e-06 4.1123031934725771e-05
56 -3.5591477882700727e-06 1.6617831360824889e-06 4.2150032793597246e-05
57 -3.6703823863985636e-06 7.4433712982441761e-07 -5.9578517469515098e-05
58 -4.9837124294837171e-06 -2.1856471687359682e-06 2.7348868035731991e-05
59 -1.7885042042503655e-06 4.4317859465248937e-06 2.7175556351441574e-05
60 -3.1030948498740104e-06 2.3490874762802163e-06 -5.5839950181230252e-05
61 -2.7006697331255422e-06 -1.6863927364156307e-07 1.3458546364980120e-05
62 3.9449558073656889e-07 2.9194581665264054e-06 1.2711634413032510e-05
63 -7.1140570480943709e-07 1.5164500624930978e-06 -5.2923448589639957e-05
64 5.0305394503055905e-07 1.4175729903633393e-06 9.8706983365166419e-06
65 1.8594924433353941e-06 -4.2038901750443078e-07 9.1028888167969401e-06
66 2.3676578875566324e-06 6.3483238655779317e-09 -5.3545713035739254e-05
67 1.2000475680072107e-06 2.4253694129086373e-06 1.3459437373889950e-05
68 2.3272795251894142e-06 -1.7995879131352836e-06 1.2712570975844436e-05
69 4.0606198930211832e-06 8.5698227930626398e-08 -5.5669007371310212e-05
70 -4.3352143618964178e-07 2.3999929208414786e-06 1.4224075384734409e-05
71 1.8007844429163131e-06 -4.7005497524526013e-07 1.3306930790355481e-05
72 3.5804846766750952e-06 1.5153224842813411e-06 -5.5839904272575078e-05
73 1.8293558349958925e-06 1.6339467958790052e-06 -5.3755255607605275e-05
74 3.6718166389989101e-07 -9.7257649076727470e-07 -5.2672425838869775e-05
75 4.9268368430737612e-06 -6.7039678651269778e-07 2.2255597781267543e-05
76 -6.7695078051018399e-08 -3.7441103391924795e-06 2.1631028783952506e-05
77 -4.8336829277579691e-07 -3.8564795033776676e-06 -5.5839661780615759e-05
78 4.7433666525735742e-06 -4.9829117188890688e-07 4.1124675368254426e-05
79 3.4026574498833650e-07 -3.9083296458107369e-06 4.2151687542055824e-05
80 -1.3298584729325224e-06 -3.6360626656777756e-06 -6.2087125412082022e-05
81 -1.9991531030247110e-09 2.1757502531383395e-09 5.0434225449013962e-05
82 -1.5762151053326440e-09 2.5918412236786224e-09 5.2589393276820737e-05
83 -2.0544695987257815e-06 -3.2546934281117038e-07 -6.5414753399392752e-05
84 -4.7585607654218897e-06 2.9756740121909442e-07 4.1116563823176004e-05
85 -4.0062817902693869e-07 4.5616882148233115e-06 4.2204782254263716e-05
86 -2.4894809705990762e-06 2.9721575573896370e-06 -6.2087457750174032e-05
87 -4.8020934083372216e-06 3.0744799566929181e-07 2.2201771013551936e-05
88 -2.5854484099977482e-07 5.0880281331929360e-06 2.1857683321202557e-05
89 -2.1050148205762955e-06 3.4794008687220628e-06 -5.5669237783099612e-05
90 -1.4792873826479994e-06 -2.6874868437975167e-07 9.8701495560267835e-06
91 -5.6648392037341152e-07 1.8245592923090592e-06 9.1023809085926639e-06
92 -3.6827891600064962e-07 1.4143191700446294e-06 -5.1844780766097879e-05
93 9.7196471911303294e-07 -1.1424362518833700e-06 9.8707274323358255e-06
94 -1.2977706977959499e-06 -1.3985554734290567e-06 9.1029682413757432e-06
95 1.4041239115346530e-06 -3.8592776122658480e-07 -5.1844668349491067e-05
96 1.6639188384681284e-06 -1.3957727826166765e-07 -5.2923370445525500e-05
97 1.3084617536087923e-06 -1.6102917358329058e-06 -6.5414686134843163e-05
98 -1.9410911667106774e-06 4.3617772590775392e-06 4.1123329944719542e-05
99 3.2141488265332637e-06 2.2539052483935710e-06 4.2150371551455077e-05
100 7.3954063430273443e-07 1.9444617301019604e-06 -6.5414885336924927e-05
101 -4.0061768672624980e-06 2.9872446441397800e-06 2.7419578636941364e-05
102 1.5456505852116308e-06 4.4547340637320477e-06 2.7277050846275507e-05
103 -4.6220484793120939e-07 3.7521890951930017e-06 -5.9531812122883289e-05
104 -1.7866208105461701e-06 5.2607005464834351e-07 1.4222087048826872e-05
105 -5.0064034188696413e-07 2.5194680157364133e-06 1.3473649529240460e-05
106 -1.1899022378851681e-06 2.0524782149407701e-06 -5.3545908909501824e-05
107 -1.0413271940148132e-06 -1.0209225942257496e-06 -5.1844690148069763e-05
108 2.4740497811509828e-06 2.8088721252691594e-06 -5.9578654361636658e-05
109 -1.0878020441708899e-06 2.1694043859632197e-06 1.3563891252001037e-05
110 1.0794108947314241e-06 1.5977233124838784e-06 1.2595022717908284e-05
111 4.4988730988200444e-07 2.0057451114843614e-06 -5.4818789397905580e-05
112 -9.1292011357388408e-08 -1.0333113140226438e-06 -1.5804274024635868e-05
113 -1.7061382481058352e-06 1.2095268503850229e-07 -1.7006378669845412e-05
114 -3.8104550902201698e-07 2.9340703137884435e-06 -1.9763917302279861e-05
115 2.8303206556577553e-06 -1.9224558903231005e-07 -2.0542130387066332e-05
116 7.0208470786525276e-07 1.4896640398849957e-06 5.8286780771576153e-05
117 4.7631658646676478e-07 1.7534597195088378e-06 -2.0394097956222000e-05
118 1.9315642784379267e-06 -1.6146113087286208e-06 -2.1354484826984792e-05
119 1.0539780766824209e-06 1.7183783819326555e-07 5.8040013530858651e-05
120 9.4105310745670663e-07 4.3298906655577565e-07 -1.5804117622714960e-05
121 7.4896859143810104e-07 -1.5425607619241552e-06 -1.7006166901726319e-05
122 1.8734579876844595e-09 -2.5868010129328284e-09 5.7221255108244540e-05
123 -8.4537744793047545e-07 5.9392365327762868e-07 -1.5804713680690503e-05
124 9.6207334824573671e-07 1.4157024749170586e-06 -1.7006782598199992e-05
125 -1.8977837322832441e-06 1.5729596514845061e-06 5.9209991608372530e-05
126 -3.2064955716526629e-06 1.9385073899133994e-06 -2.9012559931451563e-05
127 2.0047278270813239e-06 4.7245961853749066e-06 -2.9654489038706396e-05
128 5.7105532597724654e-07 2.6093968817101634e-06 -2.0560018436699273e-05
129 1.8955566488200969e-06 4.6676595619459003e-07 -2.1340842815406708e-05
130 1.0872026628598088e-06 2.0453384569496094e-06 5.8936416582994967e-05
131 3.6797269961595397e-07 5.1669121372322962e-06 -2.9230567232617674e-05
132 5.0220554680979784e-06 2.3036791725187994e-07 -2.9574521980950689e-05
133 1.9888799282628688e-06 3.4902645483299630e-06 6.1237538519967616e-05
134 1.8843812622676242e-06 4.4028858648302111e-06 -3.4736613301346978e-05
135 5.1604385581422745e-06 -2.3213886986155776e-06 -3.4895077368681893e-05
136 3.0419456000137591e-06 2.4155953394536623e-06 6.1450887635345030e-05
137 3.2861752754265677e-06 1.8055287988282224e-06 -2.9010914528716521e-05
138 3.0932757510955020e-06 -4.1001661705495974e-06 -2.9652788872499730e-05
139 2.3159884607439287e-06 8.5475339506874920e-07 5.9210235828296856e-05
140 1.9905732771935754e-06 3.4169542377379053e-08 -1.9665952824325823e-05
141 1.3086751985803970e-06 -2.1163810163098251e-06 -2.0686266659236848e-05
142 -6.7553263852468699e-07 8.2126675198753810e-07 5.8039958589204777e-05
143 -1.7566194905806845e-06 -4.6904885646603505e-07 -2.0394760325360707e-05
144 4.3285224248003580e-07 2.4758887928538328e-06 -2.1355118524436984e-05
145 -3.6125835798148569e-06 1.4209789205205636e-06 6.1450612796963715e-05
146 -4.7547503876047132e-06 -5.7440320958377961e-07 -3.4737687383889679e-05
147 -5.6960453699093046e-07 5.6251889774544358e-06 -3.4896127078433157e-05
148 -3.8142648014740011e-06 5.3702185177574186e-07 6.8159745672824711e-05
149 -4.2607091278736174e-06 -1.8644311874927284e-06 -5.0281287057950180e-05
150 -2.6810626946197037e-06 4.1712654270458561e-06 -4.9108603823356128e-05
151 -3.7275863938078244e-07 -1.0008779629742100e-06 5.8039949843555505e-05
152 -1.0247622513447054e-06 1.7026330264396910e-06 -1.9666834453295502e-05
153 1.1794614843190957e-06 2.1873220115319694e-06 -2.0687261504390896e-05
154 -5.6246596994933051e-07 1.9568965717087775e-06 6.0341161828054155e-05
155 -1.4298586666376539e-06 4.6027847349444757e-06 -3.4849536615568364e-05
156 4.2209395513577932e-06 3.0030739808259161e-06 -3.4977714476821965e-05
157 3.0211867589513253e-07 3.7221590890578255e-06 6.5402857172661052e-05
158 5.2051013861096854e-07 4.6204584742959804e-06 -5.0281173312864340e-05