LAMMPS data file via write_data, version 30 Mar 2018, timestep = 1554

76 atoms
2 atom types

0.0000000000000000e+00 1.0722891509600000e+01 xlo xhi
0.0000000000000000e+00 9.2862961617999993e+00 ylo yhi
0.0000000000000000e+00 1.0000000000000000e+02 zlo zhi
5.3614462528000004e+00 0.0000000000000000e+00 0.0000000000000000e+00 xy xz yz

Masses

1 12.011
2 12.011

Atoms # atomic

1 1 9.3121836805277205e+00 1.6380381703881097e-01 9.9902675237012446e+01 -1 1 -1
2 1 8.4721145415148014e-01 1.1398062901387431e+00 9.9902675233685258e+01 0 1 -1
3 1 3.1045075846737755e+00 2.1166923242134992e+00 9.9925078228199936e+01 0 1 -1
4 1 1.2133476160235627e+01 6.0284085279713473e+00 9.9932135751278210e+01 -1 0 -1
5 1 1.4390076388622735e+01 7.0063096995520633e+00 9.9915365210661918e+01 -1 0 -1
6 1 1.3826451138282684e+01 8.3101534271752104e+00 9.9911887391691991e+01 -1 0 -1
7 1 5.9249409223502987e+00 7.9826858627283954e+00 9.9902675240845156e+01 0 0 -1
8 1 1.6084337187499045e+01 9.2862961338523871e+00 9.9897367099802622e+01 -1 0 -1
9 1 8.1831022111254974e+00 8.9590165506619996e+00 9.9915365206347786e+01 0 0 -1
10 1 2.2579011813917305e+00 9.7635506857603682e-01 9.9911520898547252e+01 0 1 -1
11 1 5.0795404247159048e+00 6.5112324052602655e-01 9.9931913106977802e+01 0 1 -1
12 1 4.5152680504748020e+00 1.9545418846886911e+00 9.9931463392833223e+01 0 1 -1
13 1 7.3375275720219939e+00 1.6302364859888478e+00 9.9925078233156910e+01 0 1 -1
14 1 1.1852589858788196e+01 3.5838011468880535e+00 9.9923763900367973e+01 -1 0 -1
15 1 1.1288025860902453e+01 4.8873585255028678e+00 9.9933303826366583e+01 -1 0 -1
16 1 3.3855642925828260e+00 4.5617230728935692e+00 9.9931913109929852e+01 0 0 -1
17 1 1.3544325902775146e+01 5.8656962304261935e+00 9.9928189145080950e+01 -1 0 -1
18 1 5.6423009013786549e+00 5.5393671588820688e+00 9.9925078240367455e+01 0 0 -1
19 1 5.0780430378588015e+00 6.8427184110959542e+00 9.9911520907799797e+01 0 0 -1
20 1 7.9002591602996652e+00 6.5160477289075702e+00 9.9923763909916588e+01 0 0 -1
21 1 7.3357530056521156e+00 7.8189809157774697e+00 9.9911887393865570e+01 0 0 -1
22 1 1.0158289504282575e+01 7.4936941185676620e+00 9.9932135751944628e+01 0 0 -1
23 1 9.5937777063324745e+00 8.7968820136655683e+00 9.9928189142972485e+01 0 0 -1
24 1 1.2415824801528050e+01 8.4727432565146792e+00 9.9923763903468569e+01 0 0 -1
25 1 6.4902662965140276e+00 4.8988923645340859e-01 9.9927578775530435e+01 0 1 -1
26 1 8.7483918184487859e+00 1.4672225979763582e+00 9.9911520902193260e+01 0 1 -1
27 1 1.1006469656767139e+01 2.4434578967172809e+00 9.9911887387193588e+01 -1 0 -1
28 1 2.5405685032298120e+00 3.4206157093379237e+00 9.9927578772507886e+01 0 0 -1
29 1 5.3614453530911526e+00 3.0954319892947475e+00 9.9936405554477034e+01 0 0 -1
30 1 4.7964941585010497e+00 4.3986880536754054e+00 9.9931463398624899e+01 0 0 -1
31 1 7.6192313409800994e+00 4.0734496567718699e+00 9.9931913114002441e+01 0 0 -1
32 1 7.0535012392518386e+00 5.3757911306636634e+00 9.9927578782846624e+01 0 0 -1
33 1 9.8769081561946379e+00 5.0504894869060877e+00 9.9932135752975213e+01 0 0 -1
34 1 9.3114549853738069e+00 6.3531958977177281e+00 9.9933303830504556e+01 0 0 -1
35 1 1.1569192955117851e+01 7.3320378168082634e+00 9.9933303827295802e+01 0 0 -1
36 1 6.7725738302623029e+00 2.9330661378358802e+00 9.9931463397646866e+01 0 0 -1
37 1 9.5954952203169892e+00 2.6072658822270065e+00 9.9915365206187772e+01 0 0 -1
38 1 9.0305701922388639e+00 3.9100139953903410e+00 9.9928189145596988e+01 0 0 -1
39 2 1.2698973767287249e+01 7.6560595448308382e+00 3.3749217663283142e+00 -1 0 0
40 2 1.4673630033813119e+01 9.1224922141772797e+00 3.3973247623934375e+00 -1 0 0
41 2 1.1286386437325547e+01 1.3036101692507416e+00 3.3973247654795569e+00 -1 1 0
42 2 1.1003746677658235e+01 3.7469288722513197e+00 3.3749217692708124e+00 -1 0 0
43 2 1.2980677273717202e+01 5.2128463751750509e+00 3.3680868911947734e+00 -1 0 0
44 2 1.2134019864507133e+01 6.3532299536050374e+00 3.3685366042019953e+00 -1 0 0
45 2 4.2340498009588066e+00 6.6790301497188942e+00 3.3846347884899020e+00 0 0 0
46 2 1.4109838010445900e+01 7.8190734935271200e+00 3.3884790957796307e+00 -1 0 0
47 2 6.2086577023694520e+00 8.1464897418009539e+00 3.3973247584840514e+00 0 0 0
48 2 1.6084337284022503e+01 9.2862961189564555e+00 3.4026328994974286e+00 -1 0 0
49 2 2.8216561108038669e+00 3.2727948150212210e-01 3.3846347929752989e+00 0 1 0
50 2 1.9743070061547954e+00 1.4673151758102800e+00 3.3881126128588694e+00 0 1 0
51 2 4.7968435602506734e+00 1.7926019143449010e+00 3.3678642496948492e+00 0 1 0
52 2 1.0439488653422909e+01 2.4435776803161211e+00 3.3884790995991989e+00 -1 0 0
53 2 2.5388133215430795e+00 2.7702483034816092e+00 3.3762361000737471e+00 0 0 0
54 2 1.2414947011528874e+01 3.9105049603372986e+00 3.3724212266868503e+00 -1 0 0
55 2 4.5154624740248375e+00 4.2358065456706431e+00 3.3678642465424380e+00 0 0 0
56 2 3.6691246107250275e+00 5.3762820963915487e+00 3.3718108537217031e+00 0 0 0
57 2 6.4911443341139545e+00 5.7024948849977886e+00 3.3762360880741999e+00 0 0 0
58 2 5.6450242334947536e+00 6.8428381941631367e+00 3.3881126027835720e+00 0 0 0
59 2 8.4659537274387660e+00 7.1696037069007987e+00 3.3749217605772466e+00 0 0 0
60 2 7.6193474260548539e+00 8.3099410228328612e+00 3.3884790939811902e+00 0 0 0
61 2 1.0440986724827265e+01 8.6351727915907439e+00 3.3680868894544962e+00 0 0 0
62 2 4.2323316025196078e+00 4.8941407785844193e-01 3.3718108573290868e+00 0 1 0
63 2 7.0543787534434887e+00 8.1355277529272529e-01 3.3762360960018425e+00 0 1 0
64 2 6.2077470080084245e+00 1.9542582742649846e+00 3.3666961720525403e+00 0 1 0
65 2 3.9500091427339727e+00 2.9331001945211685e+00 3.3666961744376738e+00 0 0 0
66 2 6.7720303734609768e+00 3.2578875041390001e+00 3.3678642454645060e+00 0 0 0
67 2 5.9265801742419271e+00 4.3989375657421057e+00 3.3666961672419902e+00 0 0 0
68 2 8.7470101734720735e+00 4.7245729589592802e+00 3.3680868863398614e+00 0 0 0
69 2 7.9020144846635336e+00 5.8656803809725462e+00 3.3724212163924490e+00 0 0 0
70 2 1.0722891390747362e+01 6.1908640412881013e+00 3.3635944448229234e+00 0 0 0
71 2 9.8767141904138978e+00 7.3317542050406823e+00 3.3685366014883575e+00 0 0 0
72 2 1.1851712593234113e+01 8.7964068535369240e+00 3.3724212239355298e+00 0 0 0
73 2 8.4650050862663342e+00 9.7614266374097880e-01 3.3881126095046730e+00 0 1 0
74 2 9.0286304975604512e+00 2.2799863324918723e+00 3.3846347932348189e+00 0 0 0
75 2 8.1828801123820192e+00 3.4205998593549984e+00 3.3718108532013868e+00 0 0 0
76 2 1.0157940034220232e+01 4.8876080363530239e+00 3.3685366031044892e+00 0 0 0

Velocities

1 2.1922658065984292e-07 5.1717816328596534e-06 -1.2852057697082055e-05
2 4.3703332465815821e-06 -2.7578361920490636e-06 -1.2852016065353920e-05
3 -7.7118850505791685e-06 4.1581569517997233e-06 -1.4865289533910115e-05
4 -4.6179079092705915e-06 1.7848165178573658e-05 -1.5426478028976633e-05
5 -8.3167046708421936e-06 -9.9852281689256751e-06 -1.3890135496400262e-05
6 -1.1179191735968112e-05 1.7744568070988255e-06 -1.3587585153011309e-05
7 -4.5688974524801365e-06 -2.4117161333706749e-06 -1.2851933265542733e-05
8 -1.1179745376200233e-08 6.1942997641831493e-09 -1.2384608900505397e-05
9 1.2795284196837415e-05 -2.1945093404422159e-06 -1.3890324679942136e-05
10 -4.2806811397247720e-06 5.8887291027106072e-06 -1.3659528458657011e-05
11 -1.4381636756240728e-06 8.9208157413769699e-06 -1.5469140473456052e-05
12 7.0532610196351248e-06 -5.5624974539561626e-06 -1.5342218944217184e-05
13 2.4322854068861305e-07 -8.7242200351550081e-06 -1.4865244862935733e-05
14 -6.6258221607399232e-06 -1.0233689093999993e-05 -1.4809003460692307e-05
15 -1.8663889972049914e-05 -5.2566485632073230e-07 -1.5575172806703445e-05
16 8.4773342062914326e-06 -3.2037736649920762e-06 -1.5469047732887715e-05
17 7.6964595965433542e-06 1.0573115978721527e-05 -1.5230034237410980e-05
18 7.4395441627470665e-06 4.6133402707899829e-06 -1.4865571548366261e-05
19 7.2569673677299332e-06 7.4992988512578979e-07 -1.3659501952921379e-05
20 -5.5573249590674981e-06 1.0840301630642351e-05 -1.4809006387990570e-05
21 4.0326713648702809e-06 -1.0563661436345379e-05 -1.3587681063809879e-05
22 -1.3152449564027503e-05 -1.2914446653313563e-05 -1.5426506158761159e-05
23 -1.2992261880932847e-05 1.3734950538833184e-06 -1.5229832158362210e-05
24 1.2176681810830012e-05 -6.3386926952310478e-07 -1.4808954710212240e-05
25 3.3378692718617847e-06 6.9191969827952657e-06 -1.5084547920039201e-05
26 -2.9429075258633099e-06 -6.6430934440118969e-06 -1.3659623236766251e-05
27 7.1386532747111338e-06 8.7809129510203637e-06 -1.3587758709687145e-05
28 4.3096005889524625e-06 -6.3767151329673393e-06 -1.5084791101294714e-05
29 -1.3894834579649702e-08 -1.7366714871808821e-08 -1.5867815884272824e-05
30 -8.3733862054442400e-06 -3.3052459648956810e-06 -1.5342275433156632e-05
31 -6.9777900957616331e-06 -5.7249295146519284e-06 -1.5469008792565621e-05
32 -7.6578340806084794e-06 -5.3492464705831409e-07 -1.5084644685595496e-05
33 1.7766479478144084e-05 -4.9141332060647028e-06 -1.5426571505845250e-05
34 8.8806839581075266e-06 1.6417530616518333e-05 -1.5575256468605385e-05
35 9.7949272529201389e-06 -1.5896060400653559e-05 -1.5575314619077111e-05
36 1.3217375348095773e-06 8.8636427621441515e-06 -1.5342419853671879e-05
37 -4.5054954700971947e-06 1.2163759051201466e-05 -1.3890232175577098e-05
38 5.2771374418149707e-06 -1.1940278067564215e-05 -1.5229742600187881e-05
39 3.0453864754300684e-07 8.7774098126571718e-06 1.4865780881692673e-05
40 2.0072293427871218e-07 -5.1023983392846290e-06 1.2851981819489861e-05
41 -4.6502218037463931e-06 2.3749473742188827e-06 1.2852392050049880e-05
42 7.4479009761794884e-06 -4.4771067548813450e-06 1.4864393798358586e-05
43 -7.0462709307529928e-06 5.6911431300154965e-06 1.5469145203226298e-05
44 1.2663011381032380e-06 -8.9243930773670675e-06 1.5342015122946945e-05
45 -4.5102916188287528e-06 -1.2187198775763882e-05 1.3890177396446641e-05
46 -3.0056674399694441e-06 6.6154311033328468e-06 1.3659059254283774e-05
47 4.3838393951254898e-06 2.7011960106216411e-06 1.2851653310154225e-05
48 -1.2132159269010358e-08 6.6101239335860486e-08 1.2384597387300802e-05
49 1.2804161851977736e-05 2.2452228185369622e-06 1.3890141513439873e-05
50 4.1125994822041263e-06 1.0572318221095767e-05 1.3587127109360139e-05
51 -1.3114457218801136e-05 1.2915569952361393e-05 1.5426499968003665e-05
52 7.1582130019879779e-06 -8.4703964281420144e-07 1.3660186706462327e-05
53 -5.5029254852609872e-06 -1.0905344286224917e-05 1.4809037418771572e-05
54 -7.6910842854149221e-06 6.1774838992194382e-07 1.5084513847156484e-05
55 1.7732098308738078e-05 4.9434484111305739e-06 1.5426566396142021e-05
56 5.3441215070603625e-06 1.1937545852474431e-05 1.5229974612139321e-05
57 -6.5687356522690080e-06 1.0224530924710694e-05 1.4808742925117893e-05
58 7.1405417507100030e-06 -8.7343698339432600e-06 1.3588056969900683e-05
59 -7.7031953673251336e-06 -4.0835571558508368e-06 1.4865773587882958e-05
60 -4.2738417529364334e-06 -5.9479196662171007e-06 1.3659331428864573e-05
61 -1.4931768046995735e-06 -8.9565583680898479e-06 1.5469000705632849e-05
62 -1.3004952323343561e-05 -1.3859727418389809e-06 1.5229988801939934e-05
63 1.2112490244196238e-05 5.9229137115352511e-07 1.4808505940360212e-05
64 9.7548182664178652e-06 1.5856533859277276e-05 1.5575293147969074e-05
65 8.8385124835665590e-06 -1.6420413218055373e-05 1.5575417798184855e-05
66 -4.6171703923242660e-06 -1.7785461808847443e-05 1.5426527866568088e-05
67 -1.8623885646699777e-05 4.9439060784485417e-07 1.5575231530696663e-05
68 8.3633648078057775e-06 3.1359536443325656e-06 1.5469234390089603e-05
69 4.2552607179614394e-06 6.3220293189471476e-06 1.5084691346032605e-05
70 5.5841705053901934e-08 -3.6877801893511882e-08 1.5867825336515327e-05
71 7.0231521711361938e-06 5.6405826404326411e-06 1.5342418382101956e-05
72 3.3943424805015619e-06 -6.8786429668630113e-06 1.5084829567378278e-05
73 -1.1104358861600770e-05 -1.8061502271801314e-06 1.3588243483732804e-05
74 -8.1993413394895653e-06 9.9309182445971953e-06 1.3890955849129974e-05
75 7.6734750118754073e-06 -1.0447481723537308e-05 1.5229045391837034e-05
76 -8.2450005659319379e-06 3.2719079655421968e-06 1.5342518519061153e-05
