LAMMPS data file via write_data, version 30 Mar 2018, timestep = 836

114 atoms
6 atom types

0.0000000000000000e+00 1.3582428999999999e+01 xlo xhi
0.0000000000000000e+00 1.1762727999999999e+01 ylo yhi
0.0000000000000000e+00 1.0000000000000000e+02 zlo zhi
6.7912150000000002e+00 0.0000000000000000e+00 0.0000000000000000e+00 xy xz yz

Masses

1 95.94
2 32.066
3 32.066
4 95.94
5 32.066
6 32.066

Atoms # atomic

1 2 1.1798111052707291e+01 2.0026837107241599e-01 4.1149838284981586e+00 -1 1 0
2 3 1.1788697516349211e+01 2.0341255412951487e-01 7.2355867800145468e+00 -1 1 0
3 2 1.0655540786404314e+00 1.4449766610934101e+00 4.1149837721989977e+00 0 1 0
4 3 1.0729838637387927e+00 1.4515569844542322e+00 7.2355867110188656e+00 0 1 0
5 2 3.9172869144958962e+00 2.6870000263218503e+00 4.0941867822979692e+00 0 1 0
6 3 3.9324980819325246e+00 2.7019412990293525e+00 7.2091968869178293e+00 0 1 0
7 2 1.5367129871478879e+01 7.6412347515705221e+00 4.1131561144207254e+00 -1 0 0
8 3 1.5376450166514381e+01 7.6425159196539578e+00 7.2346938145087165e+00 -1 0 0
9 2 1.8232715486218488e+01 8.8822279145287713e+00 4.1098591716820536e+00 -1 0 0
10 3 1.8239228691012947e+01 8.8758395740134866e+00 7.2296750265634886e+00 -1 0 0
11 1 1.7509564855336105e+01 1.0524799099507181e+01 5.6736056651958808e+00 -1 0 0
12 2 7.5097819794891150e+00 1.0117289040122346e+01 4.1149838354915103e+00 0 0 0
13 3 7.5117658078372997e+00 1.0107564615517882e+01 7.2355867891669412e+00 0 0 0
14 1 2.0373578380571708e+01 1.1762663402032727e+01 5.6787067160133491e+00 -1 0 0
15 2 1.0356111113233517e+01 1.1348839554196250e+01 4.1098590964493020e+00 0 0 0
16 3 1.0358386935547671e+01 1.1357674435118193e+01 7.2296749346405171e+00 0 0 0
17 1 2.8554698141639250e+00 1.2437248895083273e+00 5.6662487732528186e+00 0 1 0
18 2 6.4229058728426924e+00 8.1536008918668312e-01 4.0937317033707989e+00 0 1 0
19 3 6.4141426889689610e+00 8.3507865725903319e-01 7.2090352951729431e+00 0 1 0
20 1 5.7117468722824967e+00 2.4795229496959692e+00 5.6411696805638769e+00 0 1 0
21 2 9.2966209756139193e+00 2.0489295553336073e+00 4.0941868841946931e+00 0 1 0
22 3 9.2760758543545521e+00 2.0546321017932043e+00 7.2091970201782276e+00 0 1 0
23 2 1.5006158483875113e+01 4.5463920378377978e+00 4.1094646168739031e+00 -1 0 0
24 3 1.5022258832422185e+01 4.5497331153684728e+00 7.2294033626786627e+00 -1 0 0
25 1 1.4301169318278923e+01 6.1962321264904938e+00 5.6743012620480515e+00 -1 0 0
26 2 4.2858420747374630e+00 5.7924948485240035e+00 4.0937317425415776e+00 0 0 0
27 3 4.3073004086993301e+00 5.7902245953712796e+00 7.2090353482545266e+00 0 0 0
28 1 1.7159635056879726e+01 7.4390884161283761e+00 5.6651318224115501e+00 -1 0 0
29 2 7.1595393958480500e+00 7.0266044948002699e+00 4.0941869268058140e+00 0 0 0
30 3 7.1648732993738315e+00 7.0059605548310415e+00 7.2091970740030691e+00 0 0 0
31 1 6.4405348876865842e+00 8.6678025444071611e+00 5.6662489102402924e+00 0 0 0
32 2 1.0016598876399975e+01 8.2563925184331630e+00 4.1094647017688386e+00 0 0 0
33 3 1.0011442185927834e+01 8.2407787944321846e+00 7.2294034708184478e+00 0 0 0
34 1 9.2951779597503759e+00 9.9012872165701964e+00 5.6736056601751708e+00 0 0 0
35 2 1.2863635493659633e+01 9.4876663887652217e+00 4.1131561061293302e+00 0 0 0
36 3 1.2857865814611580e+01 9.4950974974076523e+00 7.2346938040319015e+00 0 0 0
37 1 1.2142446814437278e+01 1.1141094591709516e+01 5.6651317625931163e+00 0 0 0
38 2 1.5724333793794500e+01 1.0722477522405240e+01 4.1094646420761141e+00 0 0 0
39 3 1.5713390153988552e+01 1.0734750237737281e+01 7.2294033893585850e+00 0 0 0
40 1 8.2083180465701222e+00 6.1402040434742311e-01 5.6558606379918075e+00 0 1 0
41 1 1.1077442466331947e+01 1.8510067310327982e+00 5.6662488871985222e+00 0 1 0
42 1 1.3942348310452907e+01 3.0991758835341865e+00 5.6736056276623552e+00 -1 0 0
43 1 3.2187705331860288e+00 4.3469524809252649e+00 5.6558605959865726e+00 0 0 0
44 2 6.7911491394233012e+00 3.9208446915789126e+00 4.0791098880960561e+00 0 0 0
45 3 6.7911490992122339e+00 3.9208445924922954e+00 7.1894184762218734e+00 0 0 0
46 1 6.0826289082081555e+00 5.5762951807558148e+00 5.6411697700150265e+00 0 0 0
47 2 9.6646993415590465e+00 5.1546791396271034e+00 4.0937318377204219e+00 0 0 0
48 3 9.6520041280360971e+00 5.1372307148583154e+00 7.2090354756032440e+00 0 0 0
49 1 8.9463585959555889e+00 6.8015612554244704e+00 5.6558607524354079e+00 0 0 0
50 2 1.2516325757428929e+01 6.3963609375542418e+00 4.1131561592892094e+00 0 0 0
51 3 1.2512775170987211e+01 6.3876487864427398e+00 7.2346938739996007e+00 0 0 0
52 1 1.1797896945257760e+01 8.0420111006726938e+00 5.6743012981442194e+00 0 0 0
53 1 1.4648024795473010e+01 9.2870189952757300e+00 5.6743012485226592e+00 0 0 0
54 1 8.5790714695609154e+00 3.7067159448707812e+00 5.6411697949949673e+00 0 0 0
55 2 1.2158264554605735e+01 3.2941946067265335e+00 4.1098591752049387e+00 0 0 0
56 3 1.2149475556359057e+01 3.2917481197571328e+00 7.2296750378552215e+00 0 0 0
57 1 1.1445009253673961e+01 4.9450791667405332e+00 5.6651318909693957e+00 0 0 0
58 5 1.2509312302146702e+01 1.4515585758853811e+00 1.0443461593179279e+01 -1 1 0
59 6 1.2516742016805136e+01 1.4449782963323239e+00 1.3564064542110184e+01 -1 1 0
60 5 1.4651950429308183e+01 6.3876503573092736e+00 1.0444354528527901e+01 -1 0 0
61 6 1.4648399761395966e+01 6.3963625781812290e+00 1.3565892232212242e+01 -1 0 0
62 4 1.5366828758622955e+01 8.0420126911957013e+00 1.2004747153666912e+01 -1 0 0
63 5 1.7153283494668631e+01 8.2407804451465196e+00 1.0449644928609363e+01 -1 0 0
64 6 1.7148126836286551e+01 8.2563942287430372e+00 1.3569583684366179e+01 -1 0 0
65 4 1.7869547904443586e+01 9.9012888596970505e+00 1.2005442744173738e+01 -1 0 0
66 5 6.0705310746012522e+00 1.0107566293741245e+01 1.0443461554212186e+01 0 0 0
67 6 6.0725148994480866e+00 1.0117290712299765e+01 1.3564064510041792e+01 0 0 0
68 4 2.0373576680903454e+01 1.1762665012492086e+01 1.2000341701216398e+01 -1 0 0
69 5 1.7935986092009206e+00 2.0341420608287616e-01 1.0443461639543505e+01 0 1 0
70 6 1.7841849922296056e+00 2.0026998517288702e-01 1.3564064579416717e+01 0 1 0
71 4 2.5048537689028758e+00 1.8510083251889000e+00 1.2012799638428001e+01 0 1 0
72 5 4.3062203771969392e+00 2.0546338106272728e+00 1.0469851465636795e+01 0 1 0
73 6 4.2856752720783602e+00 2.0489312317495441e+00 1.3584861570533349e+01 0 1 0
74 4 1.3222376992035178e+01 3.0991774449593246e+00 1.2005442770696316e+01 -1 0 0
75 5 1.5015249810806386e+01 3.2917496950714527e+00 1.0449373406421792e+01 -1 0 0
76 6 1.5006460702476186e+01 3.2941962263750630e+00 1.3569189249393638e+01 -1 0 0
77 4 1.5719716204924659e+01 4.9450807445499594e+00 1.2013916623498650e+01 -1 0 0
78 5 3.9302923090163548e+00 5.1372323974606893e+00 1.0470013004898927e+01 0 0 0
79 6 3.9175971318123040e+00 5.1546808444821295e+00 1.3585316609894210e+01 0 0 0
80 4 4.6359380258303151e+00 6.8015629174898731e+00 1.2023187727178437e+01 0 0 0
81 5 6.4174232874949730e+00 7.0059623220980507e+00 1.0469851277945192e+01 0 0 0
82 6 6.4227572780547018e+00 7.0266062114293346e+00 1.3584861426049605e+01 0 0 0
83 4 7.1417619265739400e+00 8.6678042153273651e+00 1.2012799492298234e+01 0 0 0
84 5 8.9254971546077257e+00 8.8758412904394959e+00 1.0449373294307311e+01 0 0 0
85 6 8.9320103414877998e+00 8.8822295469886239e+00 1.3569189160576411e+01 0 0 0
86 4 9.6551611406215496e+00 1.0524800716224888e+01 1.2005442784191281e+01 0 0 0
87 5 1.1451335856402665e+01 1.0734751929595625e+01 1.0449645010704025e+01 0 0 0
88 6 1.1440392195682703e+01 1.0722479157189904e+01 1.3569583751070361e+01 0 0 0
89 4 5.3739780759865612e+00 6.1402204166013041e-01 1.2023187847887730e+01 0 1 0
90 5 7.1681533673240621e+00 8.3508039018816860e-01 1.0470013057608364e+01 0 1 0
91 6 7.1593902815025290e+00 8.1536181031634392e-01 1.3585316649513404e+01 0 1 0
92 4 7.8705493698994351e+00 2.4795246392241981e+00 1.2037878689426099e+01 0 1 0
93 5 9.6497981203660839e+00 2.7019429793593899e+00 1.0469851334240660e+01 0 1 0
94 6 9.6650093528093191e+00 2.6870017258197274e+00 1.3584861468335180e+01 0 1 0
95 4 5.0032249057565243e+00 3.7067176128560542e+00 1.2037878720284155e+01 0 0 0
96 5 6.7911472012132146e+00 3.9208463879852866e+00 1.0489629874645164e+01 0 0 0
97 6 6.7911472979718859e+00 3.9208464336932884e+00 1.3599938462306177e+01 0 0 0
98 4 7.4996676302386502e+00 5.5762968861268654e+00 1.2037878604035285e+01 0 0 0
99 5 9.2749961210483818e+00 5.7902263150142499e+00 1.0470012877267544e+01 0 0 0
100 6 9.2964544903038480e+00 5.7924965174566490e+00 1.3585316515061310e+01 0 0 0
101 4 1.0005090656741018e+01 7.4390900440251340e+00 1.2013916518568312e+01 0 0 0
102 5 1.1788275586107629e+01 7.6425175484141246e+00 1.0444354485319842e+01 0 0 0
103 6 1.1797595809952869e+01 7.6412363629423714e+00 1.3565892199163896e+01 0 0 0
104 4 1.2516701056456832e+01 9.2870205841144067e+00 1.2004747169325301e+01 0 0 0
105 5 1.4306860021732959e+01 9.4950991364301771e+00 1.0444354560531934e+01 0 0 0
106 6 1.4301090341960812e+01 9.4876680648315261e+00 1.3565892256103322e+01 0 0 0
107 4 1.5022279150409748e+01 1.1141096230276379e+01 1.2013916635480674e+01 0 0 0
108 5 1.6806338995597294e+01 1.1357676083574189e+01 1.0449373365565087e+01 0 0 0
109 6 1.6808614865253880e+01 1.1348841263828495e+01 1.3569189212256708e+01 0 0 0
110 4 1.0726826304615756e+01 1.2437265210227451e+00 1.2012799552485935e+01 0 1 0
111 4 1.0363525873568378e+01 4.3469541084766172e+00 1.2023187694158057e+01 0 0 0
112 5 1.2142466629093787e+01 4.5497346846970457e+00 1.0449644903135916e+01 0 0 0
113 6 1.2158566880430968e+01 4.5463936514869419e+00 1.3569583669329896e+01 0 0 0
114 4 1.2863556248478071e+01 6.1962336802862721e+00 1.2004747119320687e+01 0 0 0

Velocities

1 -1.4594914414863747e-07 9.8674686458622682e-07 -8.4976797090803187e-05
2 1.1705491620901123e-06 1.7650209643938154e-07 -8.3201468282503125e-05
3 9.2498883549281000e-07 -3.6638478161511772e-07 -8.4976742083233710e-05
4 -4.3503264244076206e-07 -1.1014319840923896e-06 -8.3201417731904384e-05
5 1.5746810121970333e-06 -1.7685963281896258e-06 -9.0129829007906380e-05
6 -1.1426831701073301e-06 -1.7716040910509624e-06 -8.8024662418187126e-05
7 -5.4315351691330236e-07 -9.7541494628403240e-07 -8.4849048418094878e-05
8 -5.6882132926930643e-07 -3.8740402202991235e-07 -8.3211816114238065e-05
9 -1.6806331370939422e-06 -1.1204056363420302e-06 -8.5994080769136527e-05
10 -6.0541455052451817e-07 6.7450933555270418e-07 -8.4114680227366460e-05
11 4.3850510490338669e-07 4.7952648186760608e-09 2.0934126078834255e-05
12 -7.8226655111214273e-07 -6.1719591551422449e-07 -8.4976786336941423e-05
13 -7.3884322186387588e-07 9.2800023911420182e-07 -8.3201477123658052e-05
14 -7.3588041899897162e-10 6.8582441865188012e-10 1.9316628716051371e-05
15 1.8099386963120457e-06 -8.9265944995759797e-07 -8.5994017125151873e-05
16 -2.8209242086811337e-07 -8.5908336364090987e-07 -8.4114631365285223e-05
17 1.0222537049348660e-06 -6.5061950284645896e-07 2.3681358273740359e-05
18 2.5373774567212028e-06 -2.5425321282263133e-08 -9.0111139861402643e-05
19 9.2350946602846418e-07 -1.3564919817511771e-06 -8.8120471885255768e-05
20 1.2946629819446344e-06 -2.4401441566761136e-07 3.3019976134141071e-05
21 7.4346237172700778e-07 2.2505840967105137e-06 -9.0129934092188205e-05
22 2.1047969387399225e-06 -1.0114959954310762e-07 -8.8024759556447804e-05
23 5.4437369097471365e-08 -8.8819912430780079e-07 -8.5952561185622392e-05
24 -1.2615117905058243e-06 -1.1395384276169862e-06 -8.4057127629826180e-05
25 -4.1085029435151249e-07 -8.1029078890244800e-07 2.0465554957659255e-05
26 -1.2934153973518232e-06 -2.1841198231530042e-06 -9.0111156732088278e-05
27 -1.6391441314202802e-06 -1.2081748976600539e-07 -8.8120488687011190e-05
28 -2.8682516347366936e-07 -1.6835838124731545e-06 2.3920469028163552e-05
29 -2.3216087478370646e-06 -4.7879761850275875e-07 -9.0129945666813700e-05
30 -9.6550343918720422e-07 1.8760603159279346e-06 -8.8024787546032833e-05
31 -1.0762573795152748e-06 -5.5954146273426073e-07 2.3681164046195684e-05
32 -7.9888143163514656e-07 3.9757609913502693e-07 -8.5952628064270249e-05
33 -3.5862542459424777e-07 1.6627567636206938e-06 -8.4057222407546290e-05
34 -2.2385132559950681e-07 3.7905877794790808e-07 2.0934131311791267e-05
35 1.1155945417337965e-06 1.9904950471205460e-08 -8.4849044970317360e-05
36 6.1919891516452399e-07 -2.9644475754847456e-07 -8.3211824922683873e-05
37 1.6009924101748342e-06 5.9508739045019232e-07 2.3920560324415692e-05
38 7.4115371075421730e-07 4.9378845882946029e-07 -8.5952590116431082e-05
39 1.6168277512001489e-06 -5.2014195667589719e-07 -8.4057146683965360e-05
40 1.5783006825621907e-06 1.1591053331182177e-06 2.7321890510184918e-05
41 5.1770871754726568e-08 1.2122580709010732e-06 2.3681202665404135e-05
42 -2.1684231889501677e-07 -3.8179416208492372e-07 2.0934175601581703e-05
43 2.1292004738440175e-07 -1.9460144232059188e-06 2.7321940708668627e-05
44 -1.2151710814059356e-09 1.0718240200984478e-09 -9.4127984075688018e-05
45 -1.1516692347566617e-09 1.1701417927079136e-09 -9.2467082903736997e-05
46 -8.6042095894699094e-07 -9.9875524662332344e-07 3.3019844200168663e-05
47 -1.2474339342142110e-06 2.2127341952483929e-06 -9.0111256152879268e-05
48 7.1225812789471813e-07 1.4806000109282533e-06 -8.8120599568215581e-05
49 -1.7934560916826646e-06 7.8902779367669357e-07 2.7321722597284080e-05
50 -5.7569305425111525e-07 9.5867264104993851e-07 -8.4849096808204099e-05
51 -5.3658322512041495e-08 6.8685047224044264e-07 -8.3211879592695406e-05
52 -4.9792621370995002e-07 7.6133721626030098e-07 2.0465508480192300e-05
53 9.0666159798532332e-07 5.0986036621247893e-08 2.0465577258295148e-05
54 -4.3655305985788456e-07 1.2449573891152128e-06 3.3019813677576777e-05
55 -1.3259233845213158e-07 2.0162328314311885e-06 -8.5994104379150007e-05
56 8.8418254281544924e-07 1.8767200705691451e-07 -8.4114705734430166e-05
57 -1.3163513582610926e-06 1.0905792830562617e-06 2.3920377606105345e-05
58 5.6600678447287478e-07 -1.1584186057565769e-06 9.9640298825450483e-05
59 -8.2589324435798329e-07 -3.8026069896315696e-07 1.0170508327531725e-04
60 -4.0333881668611552e-08 5.6397324951493914e-07 9.9743942338957216e-05
61 4.2857772547013420e-07 1.0460993811605168e-06 1.0157921427959014e-04
62 5.5829101950254480e-07 8.0105863050678215e-07 -3.3502819713383860e-05
63 3.2969178862858014e-07 1.6811825696799606e-06 1.0085407948370772e-04
64 5.8904674968318190e-07 4.7969929965869235e-07 1.0289948627027989e-04
65 1.9275725189018776e-07 3.7942980639970187e-07 -3.4114035512578527e-05
66 7.2096363015937682e-07 1.0668114364322990e-06 9.9640322850501502e-05
67 7.4302409420391076e-07 -5.2765567317500863e-07 1.0170512184253491e-04
68 7.2517097473210214e-10 -6.9721404936285934e-10 -3.2365598083352753e-05
69 -1.2837279818120008e-06 8.8449717961977363e-08 9.9640263405394435e-05
70 8.6207255478114336e-08 9.0486469341885117e-07 1.0170506722746686e-04
71 1.0332283209726422e-07 1.3527295863606710e-06 -3.7197388695119327e-05
72 -2.1798586849753111e-06 -4.1668153887533991e-07 1.0600183714203643e-04
73 -9.2328911431132677e-07 2.0239752968897744e-06 1.0787547381570971e-04
74 2.3396961506333795e-07 -3.5706689000672428e-07 -3.4114070770268781e-05
75 -1.0261310328386428e-06 -1.0538512282585545e-07 1.0090092079679871e-04
76 -4.1244293930260445e-08 2.0189519790512125e-06 1.0294586061608169e-04
77 1.5521790587430575e-06 1.1565888150970249e-06 -3.7400093332841931e-05
78 -9.5583751893830176e-07 1.2551336048196348e-06 1.0612669563624596e-04
79 9.2101521700666825e-07 2.3091805007029597e-06 1.0786157173865650e-04
80 1.9931312950641498e-06 7.1485988128146775e-07 -4.1213014609068255e-05
81 7.3169187633493915e-07 2.0955235019430658e-06 1.0600195413771029e-04
82 2.2170543777134130e-06 -2.1306016101437143e-07 1.0787559558211292e-04
83 1.1214959115532327e-06 -7.6624468195311826e-07 -3.7197179612667475e-05
84 4.2423407116261225e-07 9.4074767612940619e-07 1.0090098273844135e-04
85 1.7716540252075098e-06 -9.7425730627797743e-07 1.0294594178704464e-04
86 -4.2455080327277894e-07 -2.4436041057770480e-08 -3.4114090082552941e-05
87 -1.6201502799157550e-06 -5.5764147477822058e-07 1.0085401457553847e-04
88 -7.0927302427806271e-07 2.6780012938855936e-07 1.0289943261448718e-04
89 -1.6151723980922430e-06 1.3669863128665510e-06 -4.1213183962005649e-05
90 -6.0821927873385834e-07 -1.4579832076832242e-06 1.0612663641877931e-04
91 -2.4596200401772908e-06 -3.5961944240015051e-07 1.0786152016240515e-04
92 -1.4734508757694900e-06 -1.5208571777135874e-07 -4.7582745334420308e-05
93 1.4516493780076523e-06 -1.6820455687254397e-06 1.0600191194460633e-04
94 -1.2903890359439302e-06 -1.8142013236241034e-06 1.0787553814540192e-04
95 6.0682569633363102e-07 1.3516786404710631e-06 -4.7582796441437695e-05
96 1.2293352940403907e-09 -1.0848211628327559e-09 1.1169633988616481e-04
97 1.1380103694420262e-09 -1.1538961590524904e-09 1.1261887300620110e-04
98 8.6893461592442269e-07 -1.2017848558645690e-06 -4.7582622671824942e-05
99 1.5675224756247394e-06 1.9965847157541186e-07 1.0612676409529762e-04
100 1.5419808040959568e-06 -1.9528539100523317e-06 1.0786163798779521e-04
101 2.2721713575287523e-07 -1.9228774024443427e-06 -3.7399935092138397e-05
102 5.1102670470421128e-07 -2.4764826255457885e-07 9.9743963424454008e-05
103 6.9425187480131337e-07 -8.9473518847054315e-07 1.0157924086916914e-04
104 -9.7242152764111845e-07 8.1342703975035716e-08 -3.3502837728240956e-05
105 -4.6751885419145715e-07 -3.1943826023190285e-07 9.9743898285211660e-05
106 -1.1194943658455941e-06 -1.5444204416790943e-07 1.0157918726947380e-04
107 -1.7771979964165317e-06 7.6422133936987360e-07 -3.7400103709316702e-05
108 6.0516767443201644e-07 -8.3851471156414766e-07 1.0090092673811740e-04
109 -1.7270658886158360e-06 -1.0478063768453863e-06 1.0294587814560494e-04
110 -1.2226030877955482e-06 -5.8860035249117024e-07 -3.7197260613172938e-05
111 -3.7572260744434169e-07 -2.0839643149712035e-06 -4.1212957441558014e-05
112 1.2937078315963007e-06 -1.1266785422358966e-06 1.0085410629060936e-04
113 1.2356767323264503e-07 -7.5061426443418266e-07 1.0289948826390757e-04
114 4.1627423399605840e-07 -8.8440194969530048e-07 -3.3502767950679243e-05
