LAMMPS data file via write_data, version 30 Mar 2018, timestep = 1900

762 atoms
6 atom types

0.0000000000000000e+00 3.5115534758999999e+01 xlo xhi
0.0000000000000000e+00 3.0410945687300000e+01 ylo yhi
0.0000000000000000e+00 1.0000000000000000e+02 zlo zhi
1.7557766481300000e+01 0.0000000000000000e+00 0.0000000000000000e+00 xy xz yz

Masses

1 95.94
2 32.066
3 32.066
4 95.94
5 32.066
6 32.066

Atoms # atomic

1 2 3.3308618925322477e+01 1.0754887094696849e-01 3.9803361892680953e+00 -1 1 0
2 3 3.3328634127518143e+01 1.0889010100544350e-01 7.0968725649612558e+00 -1 1 0
3 2 9.9660005593472767e-01 1.5110628802811641e+00 3.9803361925752756e+00 0 1 0
4 3 9.8775399905188133e-01 1.4930585839980310e+00 7.0968725682342555e+00 0 1 0
5 2 4.7893924678716623e+01 2.5980083802209922e+01 4.0454111655660059e+00 -1 0 0
6 3 4.7930564964469788e+01 2.6021225581975447e+01 7.1623976509270424e+00 -1 0 0
7 2 5.0682461130638401e+01 2.7389302793265820e+01 3.9980553950642248e+00 -1 0 0
8 3 5.0699186220552100e+01 2.7422114825591525e+01 7.1146860043009905e+00 -1 0 0
9 1 4.9885849502551409e+01 2.9015310478201915e+01 5.5493774667314320e+00 -1 0 0
10 2 1.8368087431964653e+01 2.8792335509643486e+01 3.9803361837405551e+00 0 0 0
11 3 1.8356918288472745e+01 2.8808998555672378e+01 7.0968725593843223e+00 0 0 0
12 1 1.7301117830834197e-06 5.0407494462256427e-07 5.5309194023519153e+00 0 1 0
13 2 2.1170009093897150e+01 3.0197648215328499e+01 3.9980554027199884e+00 0 0 0
14 3 2.1133230490398027e+01 3.0195726536267284e+01 7.1146860115811821e+00 0 0 0
15 1 2.7884316879326181e+00 1.3959668468868853e+00 5.5490975317393669e+00 0 1 0
16 2 6.4035688531624420e+00 1.2025319574175508e+00 4.0436675714123069e+00 0 1 0
17 3 6.3531829116722855e+00 1.1858467798659369e+00 7.1607729669718001e+00 0 1 0
18 2 4.4990509696475087e+01 2.1428424718364120e+01 4.1453299337503475e+00 -1 0 0
19 3 4.5020143066488828e+01 2.1464055810805444e+01 7.2634998185351751e+00 -1 0 0
20 2 4.7740975968197716e+01 2.2852708036049073e+01 4.0927575911255119e+00 -1 0 0
21 3 4.7766498447986919e+01 2.2901362929933629e+01 7.2104316824623833e+00 -1 0 0
22 1 4.6940991139463520e+01 2.4484540304436901e+01 5.6378201638060856e+00 -1 0 0
23 2 1.5397407552207115e+01 2.4264028565912593e+01 4.0436675509350604e+00 0 0 0
24 3 1.5408150746573938e+01 2.4316006649951561e+01 7.1607729472922026e+00 0 0 0
25 1 4.9708066242651569e+01 2.5898027507010461e+01 5.5824188488558617e+00 -1 0 0
26 2 1.8188155649057350e+01 2.5668043355338028e+01 4.0141467170053939e+00 0 0 0
27 3 1.8175259514536897e+01 2.5712296045700604e+01 7.1309033644752651e+00 0 0 0
28 1 1.7372495600434497e+01 2.7298111764792466e+01 5.5490975183817666e+00 0 0 0
29 2 2.0987966339070454e+01 2.7072948049827190e+01 4.0150429084780743e+00 0 0 0
30 3 2.0950141316915627e+01 2.7101561530611690e+01 7.1317352047461826e+00 0 0 0
31 1 2.0160150980496699e+01 2.8694758457962998e+01 5.5493774642608678e+00 0 0 0
32 2 2.3784696814268404e+01 2.8487314229225831e+01 4.0454111695402268e+00 0 0 0
33 3 2.3730746841712953e+01 2.8498474740234300e+01 7.1623976541398946e+00 0 0 0
34 1 2.2948688814845202e+01 3.0099435042056644e+01 5.5824188598384170e+00 0 0 0
35 2 2.6569557984975869e+01 2.9918544563265698e+01 4.0927576067334828e+00 0 0 0
36 3 2.6514660370329995e+01 2.9916320216633579e+01 7.2104316966849300e+00 0 0 0
37 1 8.1743401498184074e+00 1.1112153308066173e+00 5.6352333796526581e+00 0 1 0
38 2 1.1782718240120046e+01 9.5939423605540897e-01 4.1402000459731303e+00 0 1 0
39 3 1.1741007796103700e+01 9.5052824592944785e-01 7.2586234626341355e+00 0 1 0
40 1 1.0949146750708717e+01 2.5567756531385948e+00 5.6897339342613940e+00 0 1 0
41 2 1.4543471614949292e+01 2.4292278208834968e+00 4.1746696902070113e+00 0 1 0
42 3 1.4522998068434207e+01 2.4193453195761330e+00 7.2935394961240130e+00 0 1 0
43 2 4.2155127878236044e+01 1.6861604624347027e+01 4.1953546408831137e+00 -1 0 0
44 3 4.2167884945364570e+01 1.6858734540778066e+01 7.3138634610562496e+00 -1 0 0
45 2 4.4878366982325829e+01 1.8298498690860363e+01 4.1746649238308144e+00 -1 0 0
46 3 4.4893621338446273e+01 1.8318619054863365e+01 7.2932620051039887e+00 -1 0 0
47 1 4.4061094491258814e+01 1.9914000568478372e+01 5.7296254723518221e+00 -1 0 0
48 2 1.2497269548325702e+01 1.9727117327694263e+01 4.1402000243999302e+00 0 0 0
49 3 1.2510446608485720e+01 1.9767672624437797e+01 7.2586234429701317e+00 0 0 0
50 1 4.6797887724933709e+01 2.1353133270941264e+01 5.6846432302156726e+00 -1 0 0
51 2 1.5250943764935442e+01 2.1144550228463537e+01 4.1004758018738512e+00 0 0 0
52 3 1.5254880618375415e+01 2.1198304364952946e+01 7.2184172894801124e+00 0 0 0
53 1 1.4432939460167630e+01 2.2776153903652311e+01 5.6352333578021181e+00 0 0 0
54 2 1.8026061947736075e+01 2.2553239689474854e+01 4.0686557906537564e+00 0 0 0
55 3 1.8012724227593168e+01 2.2609163754013558e+01 7.1860709605435806e+00 0 0 0
56 1 1.7199921532574852e+01 2.4184507879052038e+01 5.5963878895581791e+00 0 0 0
57 2 2.0816942689497996e+01 2.3959862297868742e+01 4.0576961350541767e+00 0 0 0
58 3 2.0782253773972474e+01 2.4007085751576312e+01 7.1748121814618111e+00 0 0 0
59 1 1.9980499692404944e+01 2.5585537242610506e+01 5.5823270535657397e+00 0 0 0
60 2 2.3612276189755395e+01 2.5372964179117400e+01 4.0726143959428578e+00 0 0 0
61 3 2.3560717936479129e+01 2.5405320318472619e+01 7.1897768963539406e+00 0 0 0
62 1 2.2768261865155136e+01 2.6990228251016262e+01 5.5984955274127302e+00 0 0 0
63 2 2.6401133213050379e+01 2.6800785666019301e+01 4.1066583831043619e+00 0 0 0
64 3 2.6345232798773083e+01 2.6818548003268926e+01 7.2242402463005773e+00 0 0 0
65 1 2.5556342240860133e+01 2.8409821233612618e+01 5.6378201703184905e+00 0 0 0
66 2 2.9178256700158538e+01 2.8248712480141336e+01 4.1453299436950841e+00 0 0 0
67 3 2.9132582584517948e+01 2.8256560171428053e+01 7.2634998267094311e+00 0 0 0
68 1 2.8339771944379777e+01 2.9851593479132067e+01 5.6846432459587666e+00 0 0 0
69 2 3.1944923460251800e+01 2.9716556974641737e+01 4.1746649381993972e+00 0 0 0
70 3 3.1919871540059894e+01 2.9719707443352736e+01 7.2932620171824114e+00 0 0 0
71 1 1.3558825704748813e+01 9.0439277195112200e-01 5.7234236520417765e+00 0 1 0
72 2 1.7148353679990016e+01 7.8661178716537994e-01 4.1866668637903386e+00 0 1 0
73 3 1.7148201553888565e+01 7.8801413889272232e-01 7.3054325357995484e+00 0 1 0
74 1 1.6330133671469042e+01 2.3821231161378855e+00 5.7449961673723173e+00 0 1 0
75 2 1.9909958610240512e+01 2.2693868161133834e+00 4.1795526470015130e+00 0 1 0
76 3 1.9933849140487659e+01 2.2689026979480391e+00 7.2983172112235444e+00 0 1 0
77 2 3.9331241044485445e+01 1.2300294609117106e+01 4.1642034581954084e+00 -1 0 0
78 3 3.9329357628018762e+01 1.2255241384459445e+01 7.2823530354932497e+00 -1 0 0
79 2 4.2059323038340580e+01 1.3730897554496718e+01 4.1831855391299744e+00 -1 0 0
80 3 4.2058594989158607e+01 1.3706395891940572e+01 7.3016927238190030e+00 -1 0 0
81 1 4.1227503394469153e+01 1.5322960924435398e+01 5.7536655709733155e+00 -1 0 0
82 2 9.6648179745857394e+00 1.5166731869884503e+01 4.1866668506118430e+00 0 0 0
83 3 9.6661085168001204e+00 1.5166162442845174e+01 7.3054325250283947e+00 0 0 0
84 1 4.3951637896044502e+01 1.6771609569843562e+01 5.7464847542860449e+00 -1 0 0
85 2 1.2389806129024215e+01 1.6601317894841383e+01 4.1746696693705641e+00 0 0 0
86 3 1.2391484412221956e+01 1.6623989760249707e+01 7.2935394774246198e+00 0 0 0
87 1 1.1561583226384062e+01 1.8216463829819343e+01 5.7234236332506168e+00 0 0 0
88 2 1.5128654738539925e+01 1.8028740022509677e+01 4.1513978100622886e+00 0 0 0
89 3 1.5126767295887042e+01 1.8070020233244268e+01 7.2700972658026259e+00 0 0 0
90 1 1.4297428164824005e+01 1.9650320656195831e+01 5.6897339080675140e+00 0 0 0
91 2 1.7887545871878075e+01 1.9447082427071532e+01 4.1258115676188849e+00 0 0 0
92 3 1.7875846059183669e+01 1.9498067947107895e+01 7.2440994365294236e+00 0 0 0
93 1 1.7049629656264418e+01 2.1070288057388137e+01 5.6557800784612438e+00 0 0 0
94 2 2.0665759668361659e+01 2.0859665884862977e+01 4.1100813418736788e+00 0 0 0
95 3 2.0638541395739963e+01 2.0909301714061257e+01 7.2279583501833375e+00 0 0 0
96 1 1.9818903844552402e+01 2.2479616304895131e+01 5.6350623780129663e+00 0 0 0
97 2 2.3454911559698054e+01 2.2273729242973086e+01 4.1133265149080982e+00 0 0 0
98 3 2.3412084087235591e+01 2.2313424916456675e+01 7.2310106607358833e+00 0 0 0
99 1 2.2600659202705238e+01 2.3887231928799547e+01 5.6373956714806841e+00 0 0 0
100 2 2.6243193316091745e+01 2.3697889965603586e+01 4.1349265106396080e+00 0 0 0
101 3 2.6192893717881262e+01 2.3725158475690588e+01 7.2526958876153627e+00 0 0 0
102 1 2.5387641203192327e+01 2.5304758530746245e+01 5.6620986414141328e+00 0 0 0
103 2 2.9022167923341826e+01 2.5139214595682411e+01 4.1643101565657448e+00 0 0 0
104 3 2.8977386315533309e+01 2.5157131323276761e+01 7.2823734331275318e+00 0 0 0
105 1 2.8173420116613656e+01 2.6741711283036473e+01 5.6978398223540392e+00 0 0 0
106 2 3.1790197337576714e+01 2.6600125021450204e+01 4.1877537178181594e+00 0 0 0
107 3 3.1762531246620973e+01 2.6613658016080453e+01 7.3061114475570132e+00 0 0 0
108 1 3.0954494085444086e+01 2.8201027287212373e+01 5.7296254817695687e+00 0 0 0
109 2 3.4550929819287504e+01 2.8076609682733441e+01 4.1953546485091309e+00 0 0 0
110 3 3.4547036855388157e+01 2.8089092662327964e+01 7.3138634664427231e+00 0 0 0
111 1 3.3730612769604761e+01 2.9677430515894653e+01 5.7464847654419149e+00 0 0 0
112 2 3.7310104047236102e+01 2.9558993711114045e+01 4.1831855448620532e+00 0 0 0
113 3 3.7331687140462506e+01 2.9570614030514179e+01 7.3016927273046761e+00 0 0 0
114 1 1.8946209045785317e+01 7.4851845184530075e-01 5.7440086762015214e+00 0 1 0
115 2 2.2516068146787223e+01 6.2418049987494484e-01 4.1525135625010536e+00 0 1 0
116 3 2.2559831348307242e+01 6.3203559963544997e-01 7.2708175291906167e+00 0 1 0
117 1 2.1720155257362634e+01 2.2226230900316515e+00 5.7231349827098770e+00 0 1 0
118 2 2.5289889558794535e+01 2.0840413093993524e+00 4.1100813720367695e+00 0 1 0
119 3 2.5346484587553789e+01 2.0827951105324987e+00 7.2279583796690474e+00 0 1 0
120 2 3.9214001130350248e+01 9.1756848362979184e+00 4.1133265442266138e+00 -1 0 0
121 3 3.9201037398083486e+01 9.1187473231595426e+00 7.2310106911020657e+00 -1 0 0
122 1 3.8380323574782373e+01 1.0751845526150884e+01 5.6964784178012451e+00 -1 0 0
123 2 6.8402912635460309e+00 1.0599370344277229e+01 4.1525135614545556e+00 0 0 0
124 3 6.8252123817451764e+00 1.0557542755524111e+01 7.2708175299565800e+00 0 0 0
125 1 4.1120853322274201e+01 1.2184442114129665e+01 5.7268656096322372e+00 -1 0 0
126 2 9.5681364016796682e+00 1.2033724247541985e+01 4.1795526393076292e+00 0 0 0
127 3 9.5557718812222383e+00 1.2013276507012339e+01 7.2983172055701688e+00 0 0 0
128 1 8.7329005713927064e+00 1.3628790074927201e+01 5.7440086680432954e+00 0 0 0
129 2 1.2292338584910226e+01 1.3474166654594327e+01 4.1903242058173316e+00 0 0 0
130 3 1.2283883606947036e+01 1.3476267074734803e+01 7.3093483351331052e+00 0 0 0
131 1 1.1455681305246959e+01 1.5077575474732260e+01 5.7449961515479613e+00 0 0 0
132 2 1.5023534596620479e+01 1.4913307265144327e+01 4.1857475965543598e+00 0 0 0
133 3 1.5017411024902284e+01 1.4935241257335035e+01 7.3048373163417706e+00 0 0 0
134 1 1.4183290371591230e+01 1.6522057374547209e+01 5.7315141088651265e+00 0 0 0
135 2 1.7770259331944210e+01 1.6345134615925822e+01 4.1711877448292372e+00 0 0 0
136 3 1.7762049319349824e+01 1.6380491267360167e+01 7.2901112703143793e+00 0 0 0
137 1 1.6923838180843408e+01 1.7955581126458895e+01 5.7095867942129113e+00 0 0 0
138 2 2.0536072968590084e+01 1.7768424856862332e+01 4.1564807945893980e+00 0 0 0
139 3 2.0519592503523945e+01 1.7807720865312728e+01 7.2750831637413471e+00 0 0 0
140 1 1.9681406118042489e+01 1.9376681628530772e+01 5.6898550557807477e+00 0 0 0
141 2 2.3316946969131116e+01 1.9187396397580152e+01 4.1525135326925078e+00 0 0 0
142 3 2.3288262649913591e+01 1.9221368889660415e+01 7.2708175002435729e+00 0 0 0
143 1 2.2454482924633169e+01 2.0790546595079935e+01 5.6838115907094506e+00 0 0 0
144 2 2.6102282995310137e+01 2.0609891521316278e+01 4.1642034352549482e+00 0 0 0
145 3 2.6064207457724862e+01 2.0634049218686812e+01 7.2823530112282224e+00 0 0 0
146 1 2.5236745511544974e+01 2.2207634784408569e+01 5.6964783926143934e+00 0 0 0
147 2 2.8881119736036126e+01 2.2044130559645460e+01 4.1861221995846405e+00 0 0 0
148 3 2.8843226318830066e+01 2.2060405245627532e+01 7.3042691822532397e+00 0 0 0
149 1 2.8020611960601535e+01 2.3639125857986294e+01 5.7219706326916029e+00 0 0 0
150 2 3.1648304308490243e+01 2.3495134422880326e+01 4.2060432578413840e+00 0 0 0
151 3 3.1621960423145460e+01 2.3508888336257431e+01 7.3242712964534693e+00 0 0 0
152 1 3.0800804894659834e+01 2.5091235275596329e+01 5.7472628604734579e+00 0 0 0
153 2 3.4405407793828488e+01 2.4962090615482182e+01 4.2124103395244106e+00 0 0 0
154 3 3.4398938640939761e+01 2.4977940292376839e+01 7.3307231634541798e+00 0 0 0
155 1 3.3575786548321446e+01 2.6562112914839485e+01 5.7600776692801618e+00 0 0 0
156 2 3.7158009439104440e+01 2.6437974932536513e+01 4.1987896665311064e+00 0 0 0
157 3 3.7175196294172750e+01 2.6457367444246920e+01 7.3171144771008709e+00 0 0 0
158 1 3.6347246591727064e+01 2.8042585078226619e+01 5.7536655753917456e+00 0 0 0
159 2 3.9913083583580359e+01 2.7911706793575711e+01 4.1642034575330040e+00 0 0 0
160 3 3.9953042534808773e+01 2.7932602318789012e+01 7.2823530331011384e+00 0 0 0
161 1 3.9118608602929214e+01 2.9519482730344311e+01 5.7268656108165708e+00 0 0 0
162 2 4.2677694941080560e+01 2.9372478852554536e+01 4.1133265394865317e+00 0 0 0
163 3 4.2733486145171355e+01 2.9389720687800569e+01 7.2310106850520128e+00 0 0 0
164 1 2.4335668946569754e+01 5.6952112904325902e-01 5.6838116195948682e+00 0 1 0
165 2 2.7899146860462672e+01 4.0301469409819474e-01 4.0576961582067330e+00 0 1 0
166 3 2.7957388037332166e+01 4.0944444426202975e-01 7.1748122044145255e+00 0 1 0
167 1 2.7116235669277692e+01 2.0074647115801580e+00 5.6350624052577087e+00 0 1 0
168 2 3.0692868478423353e+01 1.8255205199230782e+00 4.0141467358823899e+00 0 1 0
169 3 3.0737640508441192e+01 1.8145625515484529e+00 7.1309033832140711e+00 0 1 0
170 2 3.6291228485282502e+01 4.6396382882118905e+00 4.0150429275947292e+00 -1 0 0
171 3 3.6285360984540311e+01 4.5925741114168535e+00 7.1317352243182963e+00 -1 0 0
172 2 3.9572168496855653e+00 6.0480702599852245e+00 4.0576961649393963e+00 0 0 0
173 3 3.9336645895762468e+00 5.9944170469097875e+00 7.1748122117827480e+00 0 0 0
174 1 3.8243793035707156e+01 7.6291292472359720e+00 5.6373956999585531e+00 -1 0 0
175 2 6.7176571595055670e+00 7.4672400529513556e+00 4.1100813756853025e+00 0 0 0
176 3 6.6882804053908043e+00 7.4188504230631542e+00 7.2279583843550181e+00 0 0 0
177 1 5.8831545351811823e+00 9.0508794699349195e+00 5.6838116228915982e+00 0 0 0
178 2 9.4595937164600130e+00 8.9005485148171921e+00 4.1564808241488311e+00 0 0 0
179 3 9.4338026118415943e+00 8.8666280141457534e+00 7.2750831935421951e+00 0 0 0
180 1 8.6225395794080555e+00 1.0489429785621610e+01 5.7231349805070684e+00 0 0 0
181 2 1.2191378927533814e+01 1.0345918678404665e+01 4.1874548818991464e+00 0 0 0
182 3 1.2173683070954649e+01 1.0330513912438722e+01 7.3064883948873174e+00 0 0 0
183 1 1.1352057907220882e+01 1.1939952551502110e+01 5.7471311871879687e+00 0 0 0
184 2 1.4923253864249034e+01 1.1796226669306996e+01 4.2004145211343671e+00 0 0 0
185 3 1.4913975149694824e+01 1.1798793704951628e+01 7.3196273959781832e+00 0 0 0
186 1 1.4080286092296291e+01 1.3393505530134265e+01 5.7540035311426108e+00 0 0 0
187 2 1.7664669607548984e+01 1.3242780472830855e+01 4.1979781528227695e+00 0 0 0
188 3 1.7660753713477554e+01 1.3259219753722366e+01 7.3171886465768274e+00 0 0 0
189 1 1.6816033986594718e+01 1.4840682897630534e+01 5.7466850841522703e+00 0 0 0
190 2 2.0421907683735313e+01 1.4679944302143760e+01 4.1874548631588029e+00 0 0 0
191 3 2.0417414690161095e+01 1.4702971758141860e+01 7.3064883759103543e+00 0 0 0
192 1 1.9565599426580476e+01 1.6275627628013552e+01 5.7327334400556147e+00 0 0 0
193 2 2.3195211357253974e+01 1.6107836177666758e+01 4.1795526182706482e+00 0 0 0
194 3 2.3183685349506952e+01 1.6128768046244378e+01 7.2983171836689484e+00 0 0 0
195 1 2.2330611559399578e+01 1.7698894320117052e+01 5.7231349526311499e+00 0 0 0
196 2 2.5977180530208130e+01 1.7532001658347223e+01 4.1831855193838923e+00 0 0 0
197 3 2.5956325484981228e+01 1.7544883004152858e+01 7.3016927028574052e+00 0 0 0
198 1 2.5107145715349475e+01 1.9117968032366537e+01 5.7268655843111640e+00 0 0 0
199 2 2.8756109341412166e+01 1.8960793169265028e+01 4.1987896498141817e+00 0 0 0
200 3 2.8730721497125156e+01 1.8965981162214089e+01 7.3171144609899414e+00 0 0 0
201 1 2.7887552476945991e+01 2.0544299313694097e+01 5.7440768817211856e+00 0 0 0
202 2 3.1523241318026322e+01 2.0401324111887309e+01 4.2173479176147195e+00 0 0 0
203 3 3.1502846194909900e+01 2.0404488800466069e+01 7.3355819710971648e+00 0 0 0
204 1 3.0664776618226114e+01 2.1987141039358168e+01 5.7652076326866535e+00 0 0 0
205 2 3.4277019286429031e+01 2.1856072945886694e+01 4.2265642724631078e+00 0 0 0
206 3 3.4270669545758096e+01 2.1863747893939291e+01 7.3447827593022517e+00 0 0 0
207 1 3.3435497024103157e+01 2.3448636699290550e+01 5.7775128617498384e+00 0 0 0
208 2 3.7021979889677382e+01 2.3321302795064579e+01 4.2173479250183128e+00 0 0 0
209 3 3.7034918151950023e+01 2.3337383137007677e+01 7.3355819784556981e+00 0 0 0
210 1 3.6200540177563568e+01 2.4922897539477191e+01 5.7716872635796115e+00 0 0 0
211 2 3.9765752705658301e+01 2.4788043986492234e+01 4.1861222113044887e+00 0 0 0
212 3 3.9798793710098913e+01 2.4812723295767285e+01 7.3042691942155731e+00 0 0 0
213 1 3.8963644399278159e+01 2.6398414124147632e+01 5.7440768990749413e+00 0 0 0
214 2 4.2516913479898975e+01 2.6245675582022688e+01 4.1349265242476241e+00 0 0 0
215 3 4.2565678509835664e+01 2.6275602046575724e+01 7.2526959016109256e+00 0 0 0
216 1 4.1729538561607399e+01 2.7862412565552358e+01 5.6964784133919890e+00 0 0 0
217 2 4.5283028772330340e+01 2.7686579544762882e+01 4.0726144085922318e+00 0 0 0
218 3 4.5336829148875296e+01 2.7715052221996665e+01 7.1897769093500123e+00 0 0 0
219 1 4.4502155417798107e+01 2.9305531705403570e+01 5.6373956922404274e+00 0 0 0
220 2 4.8067412824077643e+01 2.9109306605881052e+01 4.0150429178151654e+00 0 0 0
221 3 4.8111105348134046e+01 2.9127757285882343e+01 7.1317352142744710e+00 0 0 0
222 1 2.9725244143809114e+01 3.1455805726888075e-01 5.5823270711436663e+00 0 1 0
223 1 3.2512379139679432e+01 1.7168685873120735e+00 5.5490975314007107e+00 0 1 0
224 1 3.5300607185549282e+01 3.1118239497938043e+00 5.5493774759753309e+00 -1 0 0
225 2 3.7922822795168543e+00 2.9173833818898238e+00 4.0141467392711609e+00 0 0 0
226 3 3.7604063860123653e+00 2.8840886452352827e+00 7.1309033865768621e+00 0 0 0
227 1 2.9675625872307525e+00 4.5108518977751357e+00 5.5823270782624590e+00 0 0 0
228 2 6.5708281844549496e+00 4.3344078729457340e+00 4.0686558220501725e+00 0 0 0
229 3 6.5290653814979986e+00 4.2948950283274421e+00 7.1860709915892507e+00 0 0 0
230 1 5.7381668999950612e+00 5.9238661806769883e+00 5.6350624110562002e+00 0 0 0
231 2 9.3300972680025378e+00 5.7675279861116939e+00 4.1258116003709500e+00 0 0 0
232 3 9.2917924217057699e+00 5.7319028888517947e+00 7.2440994687397726e+00 0 0 0
233 1 8.4941359711204605e+00 7.3562569205523074e+00 5.6898550891247019e+00 0 0 0
234 2 1.2075106091303406e+01 7.2169286906766210e+00 4.1711877712005956e+00 0 0 0
235 3 1.2048591346414321e+01 7.1921402889358870e+00 7.2901112960512116e+00 0 0 0
236 1 1.1237630810614450e+01 8.8064923095218841e+00 5.7327334658991367e+00 0 0 0
237 2 1.4814618402497377e+01 8.6766622982267503e+00 4.1979781673256138e+00 0 0 0
238 3 1.4802339523935053e+01 8.6650514018567026e+00 7.3171886606253542e+00 0 0 0
239 1 1.3974867730140204e+01 1.0266673915665333e+01 5.7573716264512473e+00 0 0 0
240 2 1.7557768784427498e+01 1.0136982414748619e+01 4.2060754265058193e+00 0 0 0
241 3 1.7557768785996785e+01 1.0136982422494476e+01 7.3253501562395584e+00 0 0 0
242 1 1.6713783212922593e+01 1.1725979358051536e+01 5.7639073938806815e+00 0 0 0
243 2 2.0311973824604326e+01 1.1588917130350367e+01 4.2004145170766636e+00 0 0 0
244 3 2.0318836295846175e+01 1.1595669229272774e+01 7.3196273914773524e+00 0 0 0
245 1 1.9461535374918583e+01 1.3175020035723604e+01 5.7573716134422543e+00 0 0 0
246 2 2.3080570025460268e+01 1.3028386598910677e+01 4.1903241976454870e+00 0 0 0
247 3 2.3086616527063672e+01 1.3034658628225962e+01 7.3093483260711745e+00 0 0 0
248 1 2.2222042000318353e+01 1.4609800646845308e+01 5.7471311700845016e+00 0 0 0
249 2 2.5860134715905879e+01 1.4457603581921601e+01 4.1866668399531397e+00 0 0 0
250 3 2.5858996300598204e+01 1.4456770664092103e+01 7.3054325132190137e+00 0 0 0
251 1 2.4994196776749163e+01 1.6033638665568560e+01 5.7440086494640310e+00 0 0 0
252 2 2.8640549918572525e+01 1.5883678613382306e+01 4.1953546307994429e+00 0 0 0
253 3 2.8631685812614322e+01 1.5874065717627770e+01 7.3138634498948045e+00 0 0 0
254 1 2.7771857651251757e+01 1.7456346869536482e+01 5.7536655549025957e+00 0 0 0
255 2 3.1410563520501736e+01 1.7314912294150851e+01 4.2124103309667733e+00 0 0 0
256 3 3.1400071863299729e+01 1.7301385003801304e+01 7.3307231557294070e+00 0 0 0
257 1 3.0546939476456238e+01 1.8889139075241612e+01 5.7716872524574168e+00 0 0 0
258 2 3.4164647934500906e+01 1.8756733341551723e+01 4.2265642714028164e+00 0 0 0
259 3 3.4161176096989756e+01 1.8747396831114418e+01 7.3447827586720376e+00 0 0 0
260 1 3.3313932066829480e+01 2.0338275848049747e+01 5.7864237179363753e+00 0 0 0
261 2 3.6904940396450698e+01 2.0209086622150870e+01 4.2265642736776794e+00 0 0 0
262 3 3.6914761967049401e+01 2.0210748180527187e+01 7.3447827610188741e+00 0 0 0
263 1 3.6072033186674830e+01 2.1802043200932527e+01 5.7864237212720386e+00 0 0 0
264 2 3.9638766672382317e+01 2.1666089839089661e+01 4.2060432606889719e+00 0 0 0
265 3 3.9663849858450959e+01 2.1682027349784999e+01 7.3242713002285731e+00 0 0 0
266 1 3.8824569965186427e+01 2.3271846526024511e+01 5.7652076403379713e+00 0 0 0
267 2 4.2375649969120452e+01 2.3118350582298564e+01 4.1643101589866429e+00 0 0 0
268 3 4.2413557123688960e+01 2.3148174219882208e+01 7.2823734366793831e+00 0 0 0
269 1 4.1577313023303596e+01 2.4735767886724766e+01 5.7219706423978733e+00 0 0 0
270 2 4.5125129989944462e+01 2.4557447694858364e+01 4.1066583830567716e+00 0 0 0
271 3 4.5168462844987928e+01 2.4596977694771251e+01 7.2242402473136931e+00 0 0 0
272 1 4.4336278518695039e+01 2.6183171116744468e+01 5.6620986506029016e+00 0 0 0
273 1 4.7105627691083427e+01 2.7608885304783438e+01 5.5984955336976086e+00 0 0 0
274 1 5.5711787417718428e+00 2.8033151835045276e+00 5.5963879151490374e+00 0 0 0
275 2 9.1783481845764747e+00 2.6354296864833255e+00 4.1004758297839432e+00 0 0 0
276 3 9.1298273113000672e+00 2.6119620231287941e+00 7.2184173161989857e+00 0 0 0
277 1 8.3433181121738276e+00 4.2302684349716788e+00 5.6557801101505234e+00 0 0 0
278 2 1.1937863437836819e+01 4.0874293069499990e+00 4.1513978378543017e+00 0 0 0
279 3 1.1903057453422106e+01 4.0651546244307806e+00 7.2700972921348415e+00 0 0 0
280 1 1.1103629128398630e+01 5.6786832115987655e+00 5.7095868239271699e+00 0 0 0
281 2 1.4688467368837701e+01 5.5541088916943364e+00 4.1857476175188912e+00 0 0 0
282 3 1.4672533768293015e+01 5.5378387291312485e+00 7.3048373358844270e+00 0 0 0
283 1 1.3855112171998156e+01 7.1427710778830695e+00 5.7466851051206502e+00 0 0 0
284 2 1.7438078667199854e+01 7.0258034442754269e+00 4.2004145308335978e+00 0 0 0
285 3 1.7440494914996712e+01 7.0164843307416991e+00 7.3196274046812908e+00 0 0 0
286 1 1.6603649900440871e+01 8.6115709990243552e+00 5.7639074019861418e+00 0 0 0
287 2 2.0194018346396586e+01 8.4915044731457279e+00 4.1979781641895002e+00 0 0 0
288 3 2.0210213123639207e+01 8.4866761097838577e+00 7.3171886571799423e+00 0 0 0
289 1 1.9355873266752408e+01 1.0073396846454347e+01 5.7639073960925185e+00 0 0 0
290 2 2.2961304396388272e+01 9.9435310870908786e+00 4.1857476037063712e+00 0 0 0
291 3 2.2983361572819792e+01 9.9378672744531773e+00 7.3048373225055059e+00 0 0 0
292 1 2.2116741758557076e+01 1.1520309163386552e+01 5.7540035286853053e+00 0 0 0
293 2 2.5740028625722427e+01 1.1380401526492715e+01 4.1746696718090526e+00 0 0 0
294 3 2.5758823891528046e+01 1.1367612172042071e+01 7.2935394787617698e+00 0 0 0
295 1 2.4887491413931372e+01 1.2951248605084990e+01 5.7449961448798961e+00 0 0 0
296 2 2.8523317174322109e+01 1.2806837260018488e+01 4.1746649229452313e+00 0 0 0
297 3 2.8533114737850898e+01 1.2783566429416187e+01 7.2932620032537105e+00 0 0 0
298 1 2.7664356970341910e+01 1.4372852790552690e+01 5.7464847457778658e+00 0 0 0
299 2 3.1299589433860973e+01 1.4231056400134333e+01 4.1877537109317693e+00 0 0 0
300 3 3.1301702549101673e+01 1.4200330366717397e+01 7.3061114419670075e+00 0 0 0
301 1 3.0439714221956844e+01 1.5796428066168652e+01 5.7600776578998891e+00 0 0 0
302 2 3.4059536639246950e+01 1.5660668652222681e+01 4.2060432595968456e+00 0 0 0
303 3 3.4060797332150528e+01 1.5630977223965045e+01 7.3242712993068189e+00 0 0 0
304 1 3.3206208436839361e+01 1.7231671803237020e+01 5.7775128591913587e+00 0 0 0
305 2 3.6801386410690071e+01 1.7099266004920686e+01 4.2173479243666891e+00 0 0 0
306 3 3.6808843264591175e+01 1.7080020970560394e+01 7.3355819787105689e+00 0 0 0
307 1 3.5960642382972445e+01 1.8681573812599400e+01 5.7864237208579814e+00 0 0 0
308 2 3.9530636303517696e+01 1.8544890004306794e+01 4.2124103376478859e+00 0 0 0
309 3 3.9547597107693228e+01 1.8542567614637441e+01 7.3307231630760539e+00 0 0 0
310 1 3.8704902176462255e+01 2.0141584361026428e+01 5.7775128628944143e+00 0 0 0
311 2 4.2256820848870859e+01 1.9990711498069913e+01 4.1877537127243549e+00 0 0 0
312 3 4.2282373820605685e+01 2.0007904534155472e+01 7.3061114442749711e+00 0 0 0
313 1 4.1444780248096123e+01 2.1601995392564394e+01 5.7472628609849332e+00 0 0 0
314 1 4.4187826698352495e+01 2.3052139355576681e+01 5.6978398201448472e+00 0 0 0
315 1 1.3715371069529974e+01 4.0220609880023463e+00 5.7315141321958549e+00 0 0 0
316 2 1.7300397752466338e+01 3.9083939889670622e+00 4.1903242203607300e+00 0 0 0
317 3 1.7302806232170763e+01 3.9000215543579833e+00 7.3093483477623318e+00 0 0 0
318 1 1.6476278533585401e+01 5.4971325075151762e+00 5.7540035460562411e+00 0 0 0
319 2 2.0060019750436723e+01 5.3850842630501035e+00 4.1874548867595927e+00 0 0 0
320 3 2.0082208604573797e+01 5.3774615900554856e+00 7.3064883984647260e+00 0 0 0
321 1 1.9236903277532573e+01 6.9692532510063945e+00 5.7573716298694784e+00 0 0 0
322 2 2.2827940942583822e+01 6.8488839381917597e+00 4.1711877661150769e+00 0 0 0
323 3 2.2862665704333086e+01 6.8383157037718556e+00 7.2901112905399597e+00 0 0 0
324 1 2.2002160226917315e+01 8.4274932263095135e+00 5.7466850971205661e+00 0 0 0
325 2 2.5606788196901299e+01 8.2947779157570611e+00 4.1513978265789895e+00 0 0 0
326 3 2.5643481627524579e+01 8.2757723971975334e+00 7.2700972813117177e+00 0 0 0
327 1 2.4774644950264182e+01 9.8668288362540135e+00 5.7315141167958439e+00 0 0 0
328 2 2.8393318592535369e+01 9.7244356800470673e+00 4.1402000354056003e+00 0 0 0
329 3 2.8421851977798063e+01 9.6927463757897900e+00 7.2586234531791378e+00 0 0 0
330 1 2.7552897466276988e+01 1.1290090591784999e+01 5.7234236363966549e+00 0 0 0
331 2 3.1177841229396819e+01 1.1144755728759218e+01 4.1453299403559827e+00 0 0 0
332 3 3.1193881973345910e+01 1.1101276941747617e+01 7.2634998247803217e+00 0 0 0
333 1 3.0331019064512255e+01 1.2706865018734801e+01 5.7296254727599623e+00 0 0 0
334 2 3.3948789733814664e+01 1.2564327744131452e+01 4.1643101627701631e+00 0 0 0
335 3 3.3955664182699195e+01 1.2516587373679835e+01 7.2823734407647267e+00 0 0 0
336 1 3.3101022498582147e+01 1.4128662200432844e+01 5.7472628609007383e+00 0 0 0
337 2 3.6699735181263080e+01 1.3989718372031255e+01 4.1861222126537605e+00 0 0 0
338 3 3.6704587588607730e+01 1.3948764372514084e+01 7.3042691966499440e+00 0 0 0
339 1 3.5857261055964827e+01 1.5562905299877096e+01 5.7652076404231822e+00 0 0 0
340 2 3.9432488838142511e+01 1.5423124815751956e+01 4.1987896642826499e+00 0 0 0
341 3 3.9440689822716713e+01 1.5398544309041343e+01 7.3171144766479328e+00 0 0 0
342 1 3.8599127983599530e+01 1.7009856250775620e+01 5.7716872625715627e+00 0 0 0
343 1 4.1331106867687367e+01 1.8463351888011854e+01 5.7600776650332772e+00 0 0 0
344 1 1.9099206480636418e+01 3.8611940002104053e+00 5.7471311956840125e+00 0 0 0
345 2 2.2677639687698701e+01 3.7419738726719074e+00 4.1564808244068283e+00 0 0 0
346 3 2.2719911260494026e+01 3.7365983747652707e+00 7.2750831925093449e+00 0 0 0
347 1 2.1870076153067451e+01 5.3288272625561071e+00 5.7327334652013358e+00 0 0 0
348 2 2.5455663239938090e+01 5.1963368339938922e+00 4.1258115947637410e+00 0 0 0
349 3 2.5505667902470574e+01 5.1809764173441319e+00 7.2440994627959974e+00 0 0 0
350 1 2.4645839086460757e+01 6.7766828615986521e+00 5.7095868157162375e+00 0 0 0
351 2 2.8244014438309840e+01 6.6309673337098349e+00 4.1004758236163532e+00 0 0 0
352 3 2.8288598460806046e+01 6.6006808604469285e+00 7.2184173105995386e+00 0 0 0
353 1 2.7426731486592381e+01 8.2038508876472118e+00 5.6897339240035594e+00 0 0 0
354 2 3.1036073680692827e+01 8.0506403356533376e+00 4.0927576067427642e+00 0 0 0
355 3 3.1065448816066045e+01 8.0042097825665852e+00 7.2104316978478185e+00 0 0 0
356 1 3.0208947977749631e+01 9.6171661297945086e+00 5.6846432407214005e+00 0 0 0
357 2 3.3820344431875895e+01 9.4636595705449853e+00 4.1066583933737846e+00 0 0 0
358 3 3.3832911989246632e+01 9.4063672252925610e+00 7.2242402579523901e+00 0 0 0
359 1 3.2985360833099513e+01 1.1028042236347051e+01 5.6978398267709132e+00 0 0 0
360 2 3.6586500834762937e+01 1.0878327379323464e+01 4.1349265299844049e+00 0 0 0
361 3 3.6588035399852231e+01 1.0821132398396800e+01 7.2526959083661957e+00 0 0 0
362 1 3.5748682661622006e+01 1.2446999126552592e+01 5.7219706462736815e+00 0 0 0
363 1 3.8495410764996834e+01 1.3879179432380521e+01 5.7440768996788520e+00 0 0 0
364 1 2.4497764312483426e+01 3.6780086489158599e+00 5.6898550852615823e+00 0 0 0
365 2 2.8076416262739507e+01 3.5232996893187405e+00 4.0686558173298577e+00 0 0 0
366 3 2.8131516788471998e+01 3.5068884645563165e+00 7.1860709867419645e+00 0 0 0